# vtk DataFile Version 2.0
Unstructured Grid by M++
ASCII
DATASET UNSTRUCTURED_GRID
POINTS 4225 float
  0.890625   0.781250 0
  0.906250   0.765625 0
  0.968750   0.765625 0
  0.984375   0.781250 0
  0.968750   0.937500 0
  0.937500   0.906250 0
  0.968750   0.906250 0
  0.953125   0.890625 0
  0.953125   0.859375 0
  0.937500   0.875000 0
  0.953125   0.968750 0
  0.937500   0.937500 0
  0.890625   0.859375 0
  0.968750   0.968750 0
  1.000000   0.765625 0
  0.968750   0.953125 0
  0.953125   0.921875 0
  0.906250   0.843750 0
  0.968750   0.984375 0
  0.953125   0.953125 0
  0.906250   0.875000 0
  0.968750   0.859375 0
  0.937500   0.828125 0
  0.968750   0.875000 0
  0.953125   0.843750 0
  0.937500   0.843750 0
  0.953125   0.812500 0
  0.937500   0.953125 0
  0.953125   0.781250 0
  0.953125   1.000000 0
  1.000000   0.828125 0
  1.000000   0.859375 0
  0.906250   0.953125 0
  0.968750   1.000000 0
  1.000000   0.796875 0
  0.937500   0.796875 0
  0.937500   0.765625 0
  0.984375   0.875000 0
  0.890625   0.968750 0
  0.953125   0.984375 0
  0.906250   0.906250 0
  0.937500   0.984375 0
  0.984375   0.812500 0
  0.906250   0.937500 0
  0.984375   0.843750 0
  0.890625   0.937500 0
  0.906250   0.968750 0
  0.937500   1.000000 0
  0.968750   0.796875 0
  0.890625   0.921875 0
  0.968750   0.828125 0
  0.890625   0.953125 0
  0.937500   0.968750 0
  0.890625   0.890625 0
  1.000000   0.937500 0
  0.984375   0.921875 0
  0.890625   1.000000 0
  1.000000   0.906250 0
  1.000000   0.890625 0
  0.906250   0.984375 0
  0.984375   0.890625 0
  1.000000   0.953125 0
  0.984375   0.953125 0
  1.000000   0.968750 0
  0.984375   0.968750 0
  1.000000   1.000000 0
  0.984375   1.000000 0
  0.984375   0.984375 0
  1.000000   0.984375 0
  0.921875   0.812500 0
  0.906250   0.812500 0
  0.906250   0.796875 0
  0.921875   0.781250 0
  0.890625   0.812500 0
  0.890625   0.828125 0
  0.906250   0.828125 0
  0.890625   0.796875 0
  0.890625   0.984375 0
  0.906250   1.000000 0
  0.921875   0.828125 0
  0.921875   0.843750 0
  0.921875   0.859375 0
  0.921875   0.953125 0
  0.921875   0.968750 0
  0.921875   1.000000 0
  0.921875   0.984375 0
  0.921875   0.890625 0
  0.921875   0.921875 0
  1.000000   0.656250 0
  0.984375   0.640625 0
  0.984375   0.671875 0
  1.000000   0.687500 0
  0.906250   0.734375 0
  0.984375   0.609375 0
  1.000000   0.625000 0
  1.000000   0.593750 0
  1.000000   0.609375 0
  0.906250   0.703125 0
  0.984375   0.578125 0
  0.968750   0.734375 0
  1.000000   0.578125 0
  0.906250   0.671875 0
  0.953125   0.750000 0
  0.968750   0.703125 0
  0.968750   0.687500 0
  0.937500   0.656250 0
  0.968750   0.656250 0
  0.953125   0.640625 0
  0.890625   0.750000 0
  0.968750   0.625000 0
  0.937500   0.734375 0
  0.984375   0.562500 0
  0.890625   0.656250 0
  0.937500   0.687500 0
  0.890625   0.609375 0
  0.937500   0.703125 0
  0.984375   0.531250 0
  0.906250   0.656250 0
  0.953125   0.703125 0
  0.906250   0.625000 0
  0.953125   0.671875 0
  0.906250   0.593750 0
  0.937500   0.625000 0
  0.953125   0.531250 0
  0.937500   0.531250 0
  0.953125   0.562500 0
  0.937500   0.562500 0
  0.937500   0.593750 0
  0.953125   0.718750 0
  1.000000   0.546875 0
  0.968750   0.718750 0
  0.953125   0.687500 0
  1.000000   0.515625 0
  0.968750   0.546875 0
  0.890625   0.640625 0
  0.968750   0.515625 0
  0.984375   0.593750 0
  0.890625   0.687500 0
  0.968750   0.562500 0
  0.937500   0.515625 0
  0.937500   0.546875 0
  0.890625   0.718750 0
  0.968750   0.593750 0
  0.968750   0.578125 0
  0.953125   0.546875 0
  0.953125   0.578125 0
  0.953125   0.609375 0
  0.984375   0.703125 0
  1.000000   0.718750 0
  0.984375   0.718750 0
  1.000000   0.750000 0
  0.984375   0.750000 0
  0.984375   0.734375 0
  1.000000   0.734375 0
  0.921875   0.546875 0
  0.906250   0.562500 0
  0.906250   0.531250 0
  0.921875   0.531250 0
  0.921875   0.515625 0
  0.906250   0.515625 0
  0.921875   0.578125 0
  0.921875   0.609375 0
  0.921875   0.687500 0
  0.921875   0.718750 0
  0.921875   0.750000 0
  0.921875   0.640625 0
  0.921875   0.671875 0
  0.890625   0.578125 0
  0.890625   0.546875 0
  0.890625   0.515625 0
  0.828125   0.796875 0
  0.875000   0.843750 0
  0.859375   0.828125 0
  0.781250   0.953125 0
  0.843750   0.843750 0
  0.765625   0.968750 0
  0.859375   0.890625 0
  1.000000   0.921875 0
  0.765625   0.984375 0
  0.859375   0.859375 0
  0.781250   0.984375 0
  0.875000   0.875000 0
  0.875000   0.906250 0
  0.781250   1.000000 0
  0.843750   0.875000 0
  0.765625   1.000000 0
  0.843750   0.906250 0
  0.875000   0.921875 0
  0.859375   0.921875 0
  0.875000   0.984375 0
  0.796875   0.984375 0
  1.000000   0.875000 0
  0.765625   0.937500 0
  0.843750   0.812500 0
  0.875000   0.953125 0
  0.796875   0.953125 0
  0.781250   0.921875 0
  0.859375   0.796875 0
  0.843750   0.921875 0
  0.859375   0.953125 0
  0.812500   0.984375 0
  0.843750   0.781250 0
  1.000000   0.843750 0
  0.765625   0.906250 0
  0.812500   0.953125 0
  0.859375   0.781250 0
  1.000000   0.812500 0
  0.765625   0.875000 0
  0.828125   0.953125 0
  1.000000   0.781250 0
  0.765625   0.843750 0
  0.828125   0.968750 0
  0.843750   1.000000 0
  0.859375   0.765625 0
  0.875000   0.796875 0
  0.781250   0.890625 0
  0.828125   0.937500 0
  0.843750   0.968750 0
  0.875000   0.765625 0
  0.781250   0.859375 0
  0.812500   0.781250 0
  0.781250   0.968750 0
  0.859375   0.968750 0
  0.812500   1.000000 0
  0.828125   0.765625 0
  0.875000   0.812500 0
  0.843750   0.984375 0
  0.875000   0.781250 0
  0.812500   0.968750 0
  0.843750   0.765625 0
  0.875000   0.937500 0
  0.812500   0.812500 0
  0.781250   0.843750 0
  0.875000   0.968750 0
  0.859375   0.937500 0
  0.875000   1.000000 0
  0.859375   1.000000 0
  0.859375   0.984375 0
  0.843750   0.953125 0
  0.765625   0.953125 0
  0.828125   0.984375 0
  0.828125   1.000000 0
  0.812500   0.875000 0
  0.828125   0.890625 0
  0.812500   0.890625 0
  0.828125   0.906250 0
  0.812500   0.921875 0
  0.828125   0.859375 0
  0.812500   0.843750 0
  0.828125   0.828125 0
  0.765625   0.796875 0
  0.781250   0.781250 0
  0.781250   0.812500 0
  1.000000   0.703125 0
  0.765625   0.765625 0
  0.765625   0.828125 0
  0.796875   0.796875 0
  0.796875   0.765625 0
  0.796875   0.875000 0
  0.796875   0.859375 0
  0.796875   0.828125 0
  0.796875   0.906250 0
  0.796875   0.937500 0
  0.796875   0.968750 0
  0.796875   1.000000 0
  0.875000   0.593750 0
  0.781250   0.687500 0
  0.843750   0.593750 0
  0.859375   0.609375 0
  1.000000   0.640625 0
  0.765625   0.703125 0
  0.843750   0.609375 0
  1.000000   0.671875 0
  0.765625   0.734375 0
  0.875000   0.640625 0
  0.875000   0.625000 0
  0.781250   0.718750 0
  0.859375   0.625000 0
  0.781250   0.750000 0
  0.875000   0.671875 0
  0.843750   0.640625 0
  0.843750   0.750000 0
  0.875000   0.734375 0
  0.859375   0.750000 0
  0.859375   0.718750 0
  0.859375   0.687500 0
  0.843750   0.671875 0
  0.875000   0.703125 0
  0.859375   0.656250 0
  1.000000   0.531250 0
  0.765625   0.593750 0
  0.828125   0.734375 0
  0.765625   0.687500 0
  0.781250   0.703125 0
  0.859375   0.578125 0
  0.812500   0.750000 0
  0.796875   0.687500 0
  0.875000   0.562500 0
  0.796875   0.718750 0
  0.843750   0.734375 0
  0.875000   0.531250 0
  0.843750   0.703125 0
  0.812500   0.703125 0
  1.000000   0.562500 0
  0.765625   0.625000 0
  0.781250   0.671875 0
  0.812500   0.718750 0
  0.859375   0.546875 0
  0.859375   0.515625 0
  0.781250   0.640625 0
  0.781250   0.609375 0
  0.796875   0.734375 0
  0.843750   0.562500 0
  0.796875   0.703125 0
  0.812500   0.734375 0
  0.765625   0.656250 0
  0.843750   0.531250 0
  0.828125   0.515625 0
  0.812500   0.531250 0
  0.812500   0.562500 0
  0.828125   0.546875 0
  0.828125   0.687500 0
  0.828125   0.718750 0
  0.828125   0.625000 0
  0.812500   0.640625 0
  0.828125   0.656250 0
  0.812500   0.671875 0
  0.812500   0.609375 0
  0.828125   0.609375 0
  0.812500   0.593750 0
  0.828125   0.593750 0
  0.828125   0.578125 0
  0.812500   0.578125 0
  0.796875   0.625000 0
  0.796875   0.593750 0
  0.796875   0.578125 0
  0.796875   0.562500 0
  0.781250   0.578125 0
  0.781250   0.562500 0
  0.796875   0.656250 0
  0.796875   0.515625 0
  0.781250   0.531250 0
  0.796875   0.546875 0
  0.781250   0.546875 0
  0.828125   0.750000 0
  0.765625   0.515625 0
  0.765625   0.546875 0
  0.937500   0.750000 0
  0.703125   0.812500 0
  0.953125   0.937500 0
  0.718750   1.000000 0
  0.640625   1.000000 0
  0.953125   0.906250 0
  0.718750   0.968750 0
  0.640625   0.968750 0
  0.984375   0.828125 0
  0.750000   0.890625 0
  0.718750   0.921875 0
  0.953125   0.875000 0
  0.718750   0.937500 0
  0.984375   0.859375 0
  0.750000   0.921875 0
  0.734375   0.937500 0
  0.968750   0.843750 0
  0.734375   0.906250 0
  0.687500   0.921875 0
  0.640625   0.843750 0
  0.703125   0.937500 0
  0.656250   0.859375 0
  0.718750   0.953125 0
  0.937500   0.859375 0
  0.703125   0.921875 0
  0.718750   0.984375 0
  0.937500   0.890625 0
  0.703125   0.953125 0
  0.750000   0.781250 0
  0.703125   0.968750 0
  0.921875   0.875000 0
  0.687500   0.937500 0
  0.734375   0.765625 0
  0.656250   0.890625 0
  0.703125   1.000000 0
  0.921875   0.906250 0
  0.687500   0.968750 0
  0.734375   0.796875 0
  0.875000   0.828125 0
  0.640625   0.890625 0
  0.984375   0.796875 0
  0.750000   0.859375 0
  0.656250   1.000000 0
  0.968750   0.812500 0
  0.734375   0.875000 0
  0.890625   0.906250 0
  0.656250   0.968750 0
  0.968750   0.781250 0
  0.734375   0.843750 0
  0.750000   0.843750 0
  0.890625   0.875000 0
  0.656250   0.937500 0
  0.968750   0.750000 0
  0.734375   0.812500 0
  0.640625   0.984375 0
  0.953125   0.796875 0
  0.718750   0.859375 0
  0.875000   0.890625 0
  0.640625   0.953125 0
  0.953125   0.765625 0
  0.718750   0.828125 0
  0.687500   0.781250 0
  0.953125   0.828125 0
  0.718750   0.890625 0
  0.687500   0.953125 0
[...]
CELL_DATA 4096
VECTORS vector_value float
0.00856242 -1.16257 0
0.0101153 -0.876487 0
0.00322728 -0.876032 0
-0.105344 -0.564459 0
-0.114777 -0.567249 0
-0.100912 -0.582206 0
-0.095024 -0.564342 0
-0.103843 -0.561025 0
-0.108682 -0.566089 0
-0.104798 -0.577385 0
-0.0715885 -0.58881 0
-0.0934369 -0.565167 0
0.0101553 -0.869123 0
0.0103314 -0.863068 0
0.00364099 -0.862408 0
0.00340022 -0.869366 0
0.018138 -0.865696 0
0.0154446 -0.864239 0
0.0154077 -0.868165 0
0.0176159 -0.867267 0
0.0120378 -0.641174 0
0.00269225 -1.16094 0
0.00522426 -0.629985 0
0.0231438 -0.639857 0
0.0197922 -0.646277 0
0.0187767 -0.648425 0
-0.0262893 -0.861802 0
-0.0216901 -0.890029 0
-0.0113758 -0.874954 0
-0.0840759 -0.853578 0
-0.0600341 -0.869274 0
0.0260883 -0.635316 0
-0.00759888 -1.17231 0
-0.0364725 -1.14049 0
0.0176297 -0.643894 0
9.458e-05 -1.19177 0
-0.0695178 -0.568316 0
-0.0126689 -1.19086 0
0.020478 -0.646782 0
-0.00436471 -1.18428 0
-0.0595505 -1.15322 0
-0.105418 -0.779781 0
-0.0838123 -1.08825 0
0.020198 -0.867125 0
0.0182505 -1.18231 0
0.00534001 -1.168 0
0.00376385 -1.19192 0
0.00853454 -1.1797 0
-0.0228808 -0.617254 0
0.00359564 -1.18847 0
0.00351864 -1.18843 0
-0.0952145 -0.588111 0
-0.0401645 -1.1919 0
0.0236139 -0.64681 0
-0.00343641 -1.19501 0
-0.0586786 -0.593606 0
0.00141648 -1.20745 0
0.0159528 -0.633148 0
0.00257692 -1.19115 0
-0.0385416 -0.880615 0
-0.00161242 -1.19025 0
0.0171746 -1.16989 0
0.013944 -0.864402 0
-0.048176 -0.576093 0
-0.0160916 -1.07656 0
0.0104932 -1.19058 0
0.00297389 -0.87643 0
0.00124651 -1.18995 0
0.00586177 -0.866492 0
-0.0457382 -1.17345 0
-0.0780974 -1.12488 0
-0.00457491 -0.629882 0
-0.027206 -1.16187 0
-0.0224138 -1.20671 0
-0.0604028 -0.802541 0
0.0101345 -1.19537 0
-0.0336188 -0.824236 0
0.00955162 -0.641653 0
-0.023177 -1.17894 0
-0.0968031 -0.783464 0
0.0196746 -0.873218 0
-0.0125766 -0.595776 0
-0.0120927 -1.13451 0
-0.127131 -0.585155 0
-0.0484587 -1.08114 0
-0.0316114 -0.586235 0
0.00165213 -1.19376 0
0.00428516 -0.639483 0
0.000936238 -1.1893 0
0.0212098 -0.866256 0
0.0143187 -0.874837 0
0.0068732 -0.869625 0
0.000137022 -0.882508 0
0.00261003 -0.878648 0
-0.00630088 -0.842417 0
-0.0674601 -0.83266 0
-0.0547086 -0.8133 0
-0.0884742 -0.808248 0
-0.0766902 -0.790969 0
-0.00905751 -1.15566 0
-0.0148821 -1.10753 0
-0.0428734 -0.60523 0
-0.0451557 -1.11281 0
0.0020406 -1.18367 0
0.013974 -0.612002 0
0.00223726 -1.18965 0
0.00631223 -1.18534 0
0.00238479 -1.17411 0
0.00256595 -1.17906 0
0.00791766 -1.17315 0
0.000593335 -1.1678 0
0.00172974 -1.16544 0
0.00166527 -1.17006 0
0.0174878 -0.86907 0
0.0189111 -0.894215 0
0.00133054 -1.18704 0
0.0276048 -0.877354 0
0.00883465 -0.881339 0
0.00071848 -1.19096 0
-0.00502942 -0.897956 0
-0.0715067 -0.819564 0
-0.115857 -0.812329 0
-0.0857731 -0.835792 0
-0.0463787 -0.847235 0
-0.0976505 -0.823665 0
-0.112694 -0.787762 0
-0.10311 -0.797661 0
-0.126901 -0.795273 0
-0.0389485 -0.729897 0
-0.0512231 -0.790167 0
-0.015306 -0.76272 0
-0.0194442 -0.831753 0
-0.059028 -0.827246 0
-0.0647468 -0.869747 0
-0.0211925 -0.87239 0
-0.080025 -0.69421 0
-0.063075 -0.672911 0
-0.0608005 -0.685354 0
-0.06221 -0.720565 0
-0.0544053 -0.698855 0
-0.0677877 -0.698599 0
-0.0801295 -0.708191 0
-0.0347496 -0.636947 0
-0.0495035 -0.657651 0
-0.0472298 -0.672068 0
-0.108388 -0.73328 0
-0.0853871 -0.781811 0
-0.0778486 -0.747734 0
-0.100556 -0.721649 0
-0.0424087 -0.645306 0
-0.0321712 -0.614367 0
-0.0312785 -0.601267 0
-0.037968 -0.641478 0
-0.0120304 -0.687873 0
-0.189194 -0.652343 0
-0.15924 -0.661297 0
-0.0290032 -0.661407 0
-0.165779 -0.653345 0
-0.154202 -0.635428 0
-0.00757586 -0.64884 0
-0.142649 -0.661122 0
-0.0825235 -0.64905 0
-0.00971358 -0.666129 0
-0.0778606 -0.663384 0
-0.0707497 -0.588675 0
-0.0362936 -0.683216 0
-0.0896104 -0.624915 0
-0.0550615 -1.04649 0
-0.0665379 -0.964239 0
-0.150221 -0.629864 0
-0.117898 -0.86187 0
-0.0221254 -0.644857 0
-0.0747701 -0.623491 0
-0.0393509 -0.655631 0
-0.0713687 -0.671032 0
-0.0722837 -0.682251 0
-0.0642859 -0.647097 0
-0.0171418 -0.795167 0
-0.123873 -0.597684 0
-0.037555 -0.631365 0
-0.0130013 -0.734412 0
-0.158726 -0.614384 0
-0.0227292 -0.916312 0
-0.0205085 -1.00328 0
-0.103719 -1.01837 0
-0.146253 -0.760604 0
-0.122191 -0.920072 0
-0.122481 -0.750324 0
-0.0847255 -0.677444 0
-0.0755865 -0.652105 0
-0.0926612 -0.689688 0
-0.0843485 -0.663087 0
-0.0511769 -0.635892 0
-0.0322589 -0.7062 0
-0.154424 -0.610179 0
-0.126335 -0.784977 0
-0.0183406 -1.04213 0
-0.060373 -0.660606 0
-0.0545104 -0.616996 0
-0.045804 -0.758035 0
-0.127418 -0.616284 0
-0.0361911 -0.625571 0
-0.0300429 -0.619617 0
-0.125526 -0.76221 0
-0.102374 -0.665159 0
-0.110032 -0.769811 0
-0.146674 -0.765015 0
-0.14099 -0.759652 0
-0.157865 -0.744956 0
-0.0107537 -0.710657 0
-0.0747739 -0.660393 0
-0.0818407 -0.615376 0
-0.134167 -0.606351 0
-0.0615448 -1.00758 0
-0.0079497 -0.633314 0
-0.0849235 -0.629762 0
-0.0299236 -0.688524 0
-0.0880163 -1.05459 0
-0.11272 -0.607049 0
-0.0382604 -0.617485 0
-0.11397 -0.972106 0
-0.155081 -0.618644 0
-0.00955772 -0.66685 0
-0.0462808 -0.672446 0
-0.0464621 -0.65048 0
-0.101979 -0.612908 0
-0.07956 -0.613457 0
-0.149868 -0.762773 0
-0.121316 -0.71563 0
-0.0951906 -0.815059 0
-0.121486 -0.779003 0
-0.135955 -0.78056 0
-0.12903 -0.771646 0
-0.161646 -0.756763 0
-0.147882 -0.75675 0
-0.15373 -0.708999 0
-0.0218631 -0.960904 0
-0.155675 -0.771264 0
-0.113342 -0.701547 0
-0.135915 -0.69693 0
-0.00676447 -0.6186 0
-0.111959 -0.652885 0
-0.130043 -0.679713 0
-0.141428 -0.730462 0
-0.181858 -0.7308 0
-0.070118 -0.916768 0
-0.157705 -0.629775 0
-0.0201103 -0.616735 0
-0.131781 -0.631417 0
-0.0175871 -0.604082 0
-0.10045 -0.605933 0
-0.141888 -0.65976 0
-0.00575792 -0.606078 0
-0.0823713 -0.640468 0
-0.0231828 -0.6306 0
-0.132324 -0.6348 0
-0.0967398 -0.517189 0
-0.0958099 -0.496821 0
-0.0981529 -0.50009 0
-0.096425 -0.514718 0
-0.0906708 -0.522003 0
-0.0963519 -0.507658 0
-0.0842728 -0.530966 0
-0.0972699 -0.503754 0
-0.0952104 -0.505195 0
-0.0930232 -0.516597 0
-0.0957356 -0.514317 0
-0.0949357 -0.504815 0
-0.0996742 -0.514864 0
-0.0844537 -0.505297 0
-0.0455922 -0.50671 0
-0.0565822 -0.534369 0
-0.0627023 -0.50188 0
-0.0236324 -0.555762 0
-0.0340684 -0.513271 0
-0.0180894 -0.522225 0
0.00345309 -0.610791 0
0.0111138 -0.60479 0
0.00257374 -0.561468 0
0.00100663 -0.566454 0
0.00351945 -0.54955 0
0.0176183 -0.594069 0
0.00893595 -0.582434 0
-0.00382406 -0.534327 0
-0.0975238 -0.693387 0
-0.0683659 -0.701086 0
-0.0952269 -0.51533 0
-0.0780356 -0.67883 0
-0.085612 -0.70811 0
-0.0961947 -0.50309 0
-0.100298 -0.508163 0
-0.0701696 -0.612295 0
-0.101784 -0.490285 0
-0.0673449 -0.501346 0
-0.0240474 -0.70671 0
-0.00400426 -0.699939 0
-0.0904346 -0.511128 0
-0.0550438 -0.624333 0
-0.0229885 -0.696489 0
-0.0734354 -0.521794 0
-0.107942 -0.561534 0
-0.0582992 -0.699335 0
-0.080967 -0.490285 0
-0.0274499 -0.70591 0
-0.084866 -0.514116 0
-0.0931906 -0.507729 0
-0.0624839 -0.711111 0
-0.106057 -0.500894 0
-0.0492909 -0.706111 0
-0.00288962 -0.571227 0
-0.0374785 -0.543774 0
-0.0548829 -0.707684 0
-0.00582348 -0.56951 0
-0.0385599 -0.705621 0
-0.106267 -0.511853 0
-0.0956749 -0.5188 0
-0.0978535 -0.526577 0
-0.0656711 -0.518984 0
-0.0227141 -0.555784 0
-0.00433889 -0.562709 0
-0.00942796 -0.568669 0
-0.0498776 -0.543479 0
-0.0151463 -0.545198 0
-0.0666495 -0.531629 0
-0.0416969 -0.52863 0
-0.0990651 -0.51406 0
-0.112019 -0.512053 0
-0.0901292 -0.723443 0
-0.0998619 -0.517351 0
-0.0785693 -0.518483 0
-0.0508121 -0.522343 0
-0.0274255 -0.536641 0
-0.00124368 -0.566887 0
-0.00968982 -0.554505 0
-0.104903 -0.520805 0
-0.103555 -0.724623 0
-0.0796095 -0.530112 0
-0.104393 -0.721845 0
-0.0992271 -0.592849 0
-0.0771966 -0.70742 0
-0.0143707 -0.70782 0
-0.0962365 -0.51132 0
-0.0820104 -0.502911 0
-0.11165 -0.726283 0
-0.0967561 -0.714466 0
-0.110589 -0.726986 0
-0.106642 -0.707964 0
-0.0994958 -0.727588 0
-0.0815978 -0.521977 0
-0.0700957 -0.716761 0
-0.111645 -0.719494 0
-0.0953332 -0.716754 0
-0.0986435 -0.504983 0
-0.100973 -0.577395 0
-0.0902972 -0.502905 0
-0.103616 -0.578515 0
-0.0667777 -0.504746 0
-0.0339875 -0.550211 0
0.01402 -0.660922 0
0.00596864 -0.550844 0
-0.052034 -0.694748 0
-0.00957322 -0.53874 0
0.035662 -0.655246 0
0.00100777 -0.654394 0
-0.0658062 -0.702647 0
-0.0472641 -0.512524 0
-0.0125375 -0.698272 0
-0.0355608 -0.637159 0
-0.0569804 -0.535417 0
-0.0147798 -0.647416 0
-0.00483985 -0.708822 0
-0.0253629 -0.524553 0
-0.0185599 -0.562914 0
0.0404213 -0.632874 0
0.0385938 -0.600637 0
-0.026562 -0.695343 0
0.0297289 -0.570504 0
0.0190277 -0.61923 0
0.00585265 -0.618689 0
0.00531499 -0.619884 0
0.0176793 -0.617457 0
-0.104239 -0.562977 0
-0.0374355 -0.69362 0
-0.0887375 -0.588451 0
0.0356033 -0.80059 0
0.0187361 -0.818049 0
0.0409831 -0.835131 0
-0.121186 -0.553076 0
-0.107959 -0.548525 0
-0.110164 -0.553523 0
-0.121266 -0.59655 0
-0.0923866 -0.568119 0
-0.128853 -0.583176 0
-0.151174 -0.62112 0
-0.143601 -0.656385 0
-0.106533 -0.650547 0
-0.112577 -0.627535 0
-0.12372 -0.631186 0
0.00279113 -0.833997 0
-0.0072218 -0.725379 0
0.00991917 -0.728899 0
0.021636 -0.852207 0
-0.0219041 -0.718782 0
-0.0108059 -0.819483 0
-0.0240322 -0.810722 0
-0.0968878 -0.662091 0
-0.119676 -0.65972 0
-0.105096 -0.673752 0
-0.0847058 -0.691237 0
-0.0861458 -0.627855 0
-0.0902431 -0.647563 0
-0.0690081 -0.630225 0
-0.062483 -0.605035 0
-0.0953842 -0.524104 0
-0.0813301 -0.576948 0
-0.0792555 -0.549274 0
-0.0489523 -0.591842 0
-0.0650989 -0.546883 0
-0.0916122 -0.737399 0
-0.0148184 -0.630587 0
-0.0153677 -0.59364 0
-0.0175678 -0.625529 0
-0.0867099 -0.705693 0
-0.0162378 -0.623664 0
-0.0135061 -0.652166 0
0.0015354 -0.804276 0
-0.101762 -0.697011 0
-0.0302428 -0.642779 0
-0.107059 -0.531746 0
-0.0412298 -0.689113 0
-0.0265669 -0.782583 0
0.0149075 -0.784123 0
-0.135121 -0.670125 0
-0.0554215 -0.666941 0
-0.0642437 -0.738945 0
-0.0175089 -0.767827 0
-0.0594513 -0.683876 0
-0.0312203 -0.727199 0
-0.0448043 -0.631213 0
-0.0351085 -0.677632 0
-0.00913937 -0.625615 0
-0.0169866 -0.563872 0
-0.0583855 -0.535194 0
-0.0412446 -0.515145 0
-0.0452125 -0.684848 0
-0.0262546 -0.616054 0
-0.0396655 -0.574847 0
-0.00303331 -0.647892 0
-0.0301536 -0.73764 0
-0.00856847 -0.774236 0
0.0480952 -0.774904 0
-0.0756834 -0.722606 0
-0.0249096 -0.753747 0
0.0100238 -0.739715 0
-0.125708 -0.719286 0
-0.0263787 -0.699571 0
-0.0055967 -0.691717 0
-0.155964 -0.694718 0
-0.0366375 -0.653364 0
-0.026046 -0.63091 0
-0.0310186 -0.537338 0
-0.112745 -0.738549 0
-0.00867884 -0.632568 0
-0.0552985 -0.554422 0
-0.00602242 -0.63538 0
-0.0559234 -0.726568 0
-0.0406813 -0.593071 0
-0.0177597 -0.638239 0
-0.070034 -0.772715 0
-0.00988319 -0.741954 0
-0.120869 -0.687311 0
-0.0167632 -0.651194 0
-0.0163482 -0.793012 0
-0.0652529 -0.793762 0
-0.0460022 -0.766513 0
-0.0810992 -0.721539 0
-0.0500133 -0.709914 0
-0.0647795 -0.655659 0
-0.0419247 -0.61164 0
0.00625143 -0.671099 0
0.00506784 -0.745946 0
-0.0238517 -0.630468 0
-0.0978652 -0.529095 0
-0.0419664 -0.655695 0
-0.124201 -0.701708 0
-0.0268763 -0.671078 0
0.0186208 -0.705429 0
-0.113204 -0.701235 0
-0.0081466 -0.675878 0
-0.0576625 -0.713823 0
-0.00221788 -0.71224 0
0.046605 -0.749954 0
-0.0373978 -0.703079 0
0.0393375 -0.728107 0
0.0301372 -0.763649 0
0.0748671 -0.767161 0
0.0719175 -0.779766 0
0.0550485 -0.76212 0
-0.0134662 -0.759065 0
0.0603728 -0.819765 0
0.0021495 -0.768021 0
-0.00996278 -0.664016 0
-0.0253986 -0.75358 0
-0.0507526 -0.592975 0
-0.0348294 -0.805205 0
-0.118889 -0.674594 0
0.0121313 -0.687386 0
-0.0786711 -0.672489 0
-0.103486 -0.762836 0
-8.11938e-05 -0.658681 0
-0.0994234 -0.682164 0
-0.0779308 -0.589074 0
-0.177262 -1.00669 0
-0.163907 -0.989316 0
-0.137361 -1.03908 0
-0.134054 -1.02905 0
-0.151148 -1.04 0
-0.12461 -1.05199 0
-0.0845857 -1.02291 0
-0.0928126 -1.02308 0
-0.114763 -1.02857 0
-0.0998441 -1.04058 0
-0.0737825 -1.0324 0
-0.0860003 -1.02442 0
-0.0981941 -1.02555 0
-0.0878646 -1.04384 0
-0.0493372 -1.04084 0
-0.0392494 -1.03411 0
-0.0602479 -1.03161 0
-0.0408283 -1.05317 0
-0.0517787 -1.0401 0
-0.0622089 -1.03951 0
-0.0691589 -1.05777 0
-0.0113936 -1.09875 0
-0.0458757 -1.11828 0
-0.0149865 -1.12515 0
-0.0835499 -1.09314 0
-0.052513 -1.07227 0
-0.0727293 -1.05585 0
-0.049135 -0.715518 0
-0.0499996 -1.03312 0
-0.0394294 -0.716722 0
-0.0595 -1.03199 0
-0.0535498 -0.715434 0
-0.0772175 -1.01106 0
-0.101414 -1.41232 0
-0.0816171 -1.50362 0
-0.0922283 -1.52025 0
-0.152206 -1.02021 0
-0.0977599 -1.51046 0
-0.125652 -1.03311 0
-0.159671 -1.67537 0
-0.123513 -1.0225 0
-0.165987 -1.27425 0
-0.0985551 -1.60594 0
-0.1504 -1.37333 0
-0.133064 -1.02692 0
-0.0747731 -1.26134 0
-0.14734 -1.45735 0
-0.0621105 -1.45689 0
-0.121024 -0.729439 0
-0.169532 -1.46913 0
-0.125098 -0.704673 0
-0.135288 -1.37662 0
-0.118263 -1.45555 0
-0.0934358 -0.652235 0
-0.14519 -1.34463 0
-0.108589 -1.37874 0
-0.079032 -0.737184 0
-0.142377 -1.54197 0
-0.0594658 -0.716358 0
-0.0727744 -1.61284 0
-0.176553 -1.3297 0
-0.100625 -1.01142 0
-0.156798 -1.84725 0
-0.118557 -1.31683 0
-0.12422 -1.02528 0
-0.173726 -1.85908 0
-0.0428627 -1.03621 0
-0.142879 -1.50676 0
-0.142757 -1.02531 0
-0.158147 -1.80656 0
-0.14709 -1.41542 0
-0.193954 -1.72862 0
-0.121382 -0.676936 0
-0.128995 -1.35744 0
-0.143493 -1.28802 0
-0.156766 -1.31973 0
-0.0532405 -1.03264 0
-0.0226293 -1.7611 0
-0.111911 -1.28496 0
-0.103815 -1.28199 0
-0.0496429 -1.03781 0
-0.189012 -1.85148 0
-0.162643 -1.84389 0
-0.11961 -1.00247 0
-0.17484 -1.76057 0
-0.200595 -1.70775 0
-0.0472197 -1.05302 0
-0.150835 -1.83442 0
-0.0339495 -1.0901 0
-0.0709038 -1.76523 0
-0.141452 -1.30996 0
-0.164482 -1.31746 0
-0.0898213 -1.3251 0
-0.119272 -0.719227 0
-0.123309 -1.27349 0
-0.131508 -1.24386 0
-0.10281 -0.740821 0
-0.129715 -1.31231 0
-0.0186428 -1.52767 0
-0.105151 -1.54832 0
-0.0217964 -1.56851 0
-0.0565366 -1.52022 0
-0.0996689 -1.51858 0
-0.114363 -1.49771 0
-0.123723 -1.26749 0
-0.101121 -1.3492 0
-0.113896 -1.35612 0
-0.0566245 -1.39918 0
-0.128228 -1.33687 0
-0.112489 -1.33994 0
-0.131263 -1.28603 0
-0.0969132 -1.31595 0
-0.0842843 -1.36366 0
-0.105896 -1.52749 0
-0.027142 -0.716994 0
-0.0240563 -0.715895 0
-0.13688 -1.58935 0
-0.0325438 -1.06017 0
-0.00584087 -0.719354 0
-0.0327464 -1.04497 0
-0.0233988 -1.61433 0
-0.00801629 -1.0795 0
-0.022717 -1.07354 0
-0.0668561 -1.56248 0
-0.0166506 -0.717075 0
-0.0605747 -0.723248 0
-0.134429 -1.79304 0
-0.0615179 -1.02413 0
0.11164 -1.01933 0
0.131148 -0.811285 0
0.154592 -1.03354 0
0.0813284 -0.763443 0
0.0869048 -0.770169 0
0.0967394 -1.00808 0
0.084808 -1.00149 0
0.0383614 -1.00304 0
0.0401409 -0.760302 0
0.049647 -0.760735 0
0.0495942 -1.00077 0
0.0125868 -0.751483 0
0.030813 -1.01264 0
0.00651972 -1.02785 0
-0.0519363 -0.835886 0
-0.0604051 -1.06144 0
-0.0753954 -1.07967 0
-0.0498217 -1.05242 0
-0.0296368 -0.778997 0
-0.0194116 -1.04177 0
-0.150439 -0.926867 0
-0.093718 -0.885951 0
-0.115429 -1.18134 0
-0.133409 -1.1451 0
-0.10408 -1.14655 0
-0.0765652 -0.871507 0
-0.0657835 -0.854222 0
-0.091547 -1.11056 0
0.0691567 -0.725534 0
0.0503044 -0.771518 0
0.0266854 -0.679591 0
-0.00765353 -0.827588 0
-0.0211441 -0.609859 0
0.0949917 -0.785408 0
0.142186 -1.28674 0
0.096293 -0.821827 0
0.196593 -1.29587 0
0.0758706 -0.77025 0
0.113549 -1.33234 0
0.180779 -1.28156 0
-0.243211 -1.48979 0
0.125272 -1.00368 0
0.00270271 -0.768683 0
-0.205567 -1.47215 0
0.0865992 -0.986497 0
0.0397658 -0.697248 0
-0.104965 -1.50586 0
0.062289 -0.74919 0
-0.0609743 -1.44854 0
0.00186771 -0.614009 0
-0.0857353 -1.00524 0
0.0764775 -0.756685 0
0.00123225 -1.38161 0
0.0343278 -1.34051 0
0.0187898 -0.981367 0
-0.123641 -1.23937 0
-0.199878 -1.53802 0
0.021688 -0.665888 0
0.0364264 -0.768894 0
-0.165737 -1.48896 0
0.170731 -1.01923 0
0.0824341 -0.767047 0
-0.121851 -1.44376 0
-0.0332157 -0.853331 0
-0.14638 -1.53062 0
0.0715896 -0.789447 0
-0.0544308 -1.38604 0
0.00589551 -0.790967 0
-0.0914479 -1.47654 0
-0.00473998 -1.33014 0
-0.164243 -1.45394 0
0.112854 -0.964415 0
-0.219025 -1.1842 0
-0.189984 -1.49443 0
0.106535 -0.991495 0
0.195249 -1.01683 0
0.0741013 -1.30412 0
0.014437 -1.35285 0
-0.208895 -1.27372 0
-0.0401536 -0.810408 0
-0.129726 -1.46961 0
-0.00649714 -0.756549 0
-0.0878512 -1.41449 0
0.0348851 -0.756557 0
-0.0347452 -1.35654 0
0.0250492 -1.31402 0
0.108368 -1.29546 0
0.156879 -1.32119 0
-0.151864 -1.17647 0
0.0802381 -1.335 0
-0.128156 -1.09027 0
-0.146046 -1.13286 0
-0.125125 -1.02096 0
-0.194394 -1.11231 0
0.0844333 -0.965259 0
0.034197 -0.991827 0
0.0587522 -0.756412 0
0.14993 -0.98321 0
-0.00439584 -1.00487 0
0.0272597 -0.979743 0
-0.00716594 -0.977689 0
-0.0598498 -1.0242 0
0.0194288 -0.99778 0
0.0473422 -0.987677 0
0.0419865 -0.971601 0
-0.0308919 -1.01335 0
-0.0708128 -0.994696 0
-0.101813 -1.05813 0
-0.0727764 -1.03758 0
-0.175361 -1.05934 0
-0.0365702 -0.62068 0
-0.0451431 -0.635987 0
-0.0602982 -0.882776 0
-0.0613146 -0.642831 0
-0.0507438 -0.868755 0
-0.0884158 -0.958594 0
-0.0672745 -0.911043 0
-0.0470721 -0.643078 0
-0.208361 -1.52353 0
0.00915364 -0.653634 0
-0.0234211 -1.4191 0
0.0124948 -0.76464 0
-0.20952 -1.42508 0
0.0128653 -0.634139 0
-0.198576 -1.49962 0
0.0302523 -0.764292 0
-0.0421971 -0.983285 0
0.00430385 -0.647852 0
-0.264911 -1.87579 0
-0.288531 -1.88137 0
-0.329583 -1.88458 0
-0.239449 -1.82901 0
-0.263969 -1.86119 0
-0.218957 -1.84709 0
-0.309758 -1.77435 0
-0.250966 -1.80236 0
-0.198435 -1.72577 0
-0.29421 -1.69637 0
-0.295067 -1.8936 0
-0.322194 -1.83542 0
-0.325866 -1.87476 0
-0.176772 -1.80946 0
-0.206525 -1.79263 0
-0.211378 -1.81234 0
-0.199499 -1.83138 0
-0.136535 -1.72518 0
-0.189058 -1.75275 0
-0.154577 -1.78511 0
-0.125346 -1.76701 0
-0.179215 -1.52387 0
-0.165004 -1.52711 0
-0.0981203 -1.89439 0
-0.0699676 -1.86499 0
-0.0971887 -1.834 0
-0.123502 -1.8572 0
-0.206105 -1.87701 0
-0.184216 -1.87372 0
-0.199457 -1.90691 0
-0.21974 -1.77337 0
-0.244013 -1.71556 0
-0.357597 -1.73075 0
-0.190479 -1.84335 0
-0.16626 -1.65 0
-0.18297 -1.47734 0
-0.193676 -1.7407 0
-0.211511 -1.86779 0
-0.246386 -1.72816 0
-0.150102 -1.8349 0
-0.190028 -1.67658 0
-0.259409 -1.86569 0
-0.181301 -1.85785 0
-0.129976 -1.80799 0
-0.0410947 -1.79931 0
-0.0856662 -1.63977 0
-0.0974823 -1.78879 0
-0.12348 -1.65881 0
-0.267052 -1.78548 0
-0.0370511 -1.48209 0
-0.406466 -1.74673 0
-0.0510532 -1.66746 0
-0.30318 -1.65891 0
-0.130438 -1.50467 0
-0.176146 -1.57646 0
-0.157017 -1.65887 0
-0.0129221 -1.79622 0
-0.11406 -1.79019 0
-0.07193 -1.76455 0
-0.0788851 -1.79712 0
-0.013974 -1.76898 0
-0.138479 -1.68857 0
-0.225882 -1.55285 0
-0.154885 -1.54697 0
-0.140342 -1.64815 0
-0.198431 -1.81256 0
-0.0291092 -1.62865 0
-0.104099 -1.66014 0
-0.207018 -1.63197 0
-0.156718 -1.66786 0
-0.0661673 -1.60691 0
-0.224939 -1.72943 0
-0.093835 -1.69197 0
-0.389994 -1.72783 0
-0.402067 -1.74002 0
-0.363015 -1.7717 0
-0.155504 -1.53464 0
-0.0334714 -1.58437 0
-0.0830094 -1.48241 0
-0.334229 -1.68798 0
-0.208585 -1.85408 0
-0.0140689 -1.49751 0
-0.343729 -1.89144 0
-0.448702 -1.78397 0
-0.181184 -1.86346 0
-0.00776834 -1.59631 0
-0.387469 -1.84764 0
-0.318956 -1.88886 0
-0.249229 -1.87133 0
-0.352414 -1.69523 0
-0.236789 -1.68313 0
-0.322442 -1.70999 0
-0.345946 -1.7221 0
-0.0107462 -1.57767 0
-0.0198494 -1.80397 0
-0.0166593 -1.84036 0
-0.0160859 -1.49387 0
-0.0623505 -1.73623 0
-0.0226975 -1.60336 0
-0.0478109 -1.84605 0
-0.0599298 -1.81359 0
-0.338769 -1.9054 0
-0.363731 -1.5076 0
-0.276496 -1.73056 0
-0.261738 -1.76309 0
-0.347896 -1.52609 0
-0.253458 -1.47312 0
-0.235012 -1.83019 0
-0.146123 -1.68544 0
-0.206058 -1.5114 0
-0.146387 -1.52228 0
-0.282448 -1.85388 0
-0.183437 -1.47699 0
-0.271162 -1.85111 0
-0.338459 -1.52636 0
-0.255324 -1.59537 0
-0.35227 -1.7105 0
-0.414088 -1.52376 0
-0.407833 -1.52258 0
-0.420301 -1.7384 0
-0.0930876 -1.76153 0
-0.0423905 -1.74212 0
-0.0879906 -1.72457 0
-0.0422807 -1.76812 0
-0.00507314 -1.49324 0
-0.0146983 -1.74043 0
-0.15607 -1.87242 0
-0.146622 -1.914 0
-0.0540118 -1.44973 0
-0.0485249 -1.49924 0
-0.00318093 -1.49284 0
-0.00489547 -1.44893 0
-0.104936 -1.51719 0
-0.0946823 -1.50787 0
-0.108774 -1.46068 0
-0.115885 -1.4764 0
0.100933 -1.43591 0
0.114391 -1.46758 0
0.13774 -1.41991 0
0.0450224 -1.48676 0
0.0719777 -1.44706 0