# vtk DataFile Version 2.0
Unstructured Grid by M++
ASCII
DATASET UNSTRUCTURED_GRID
POINTS 4225 float
  0.890625   0.781250 0
  0.906250   0.765625 0
  0.968750   0.765625 0
  0.984375   0.781250 0
  0.968750   0.937500 0
  0.937500   0.906250 0
  0.968750   0.906250 0
  0.953125   0.890625 0
  0.953125   0.859375 0
  0.937500   0.875000 0
  0.953125   0.968750 0
  0.937500   0.937500 0
  0.890625   0.859375 0
  0.968750   0.968750 0
  1.000000   0.765625 0
  0.968750   0.953125 0
  0.953125   0.921875 0
  0.906250   0.843750 0
  0.968750   0.984375 0
  0.953125   0.953125 0
  0.906250   0.875000 0
  0.968750   0.859375 0
  0.937500   0.828125 0
  0.968750   0.875000 0
  0.953125   0.843750 0
  0.937500   0.843750 0
  0.953125   0.812500 0
  0.937500   0.953125 0
  0.953125   0.781250 0
  0.953125   1.000000 0
  1.000000   0.828125 0
  1.000000   0.859375 0
  0.906250   0.953125 0
  0.968750   1.000000 0
  1.000000   0.796875 0
  0.937500   0.796875 0
  0.937500   0.765625 0
  0.984375   0.875000 0
  0.890625   0.968750 0
  0.953125   0.984375 0
  0.906250   0.906250 0
  0.937500   0.984375 0
  0.984375   0.812500 0
  0.906250   0.937500 0
  0.984375   0.843750 0
  0.890625   0.937500 0
  0.906250   0.968750 0
  0.937500   1.000000 0
  0.968750   0.796875 0
  0.890625   0.921875 0
  0.968750   0.828125 0
  0.890625   0.953125 0
  0.937500   0.968750 0
  0.890625   0.890625 0
  1.000000   0.937500 0
  0.984375   0.921875 0
  0.890625   1.000000 0
  1.000000   0.906250 0
  1.000000   0.890625 0
  0.906250   0.984375 0
  0.984375   0.890625 0
  1.000000   0.953125 0
  0.984375   0.953125 0
  1.000000   0.968750 0
  0.984375   0.968750 0
  1.000000   1.000000 0
  0.984375   1.000000 0
  0.984375   0.984375 0
  1.000000   0.984375 0
  0.921875   0.812500 0
  0.906250   0.812500 0
  0.906250   0.796875 0
  0.921875   0.781250 0
  0.890625   0.812500 0
  0.890625   0.828125 0
  0.906250   0.828125 0
  0.890625   0.796875 0
  0.890625   0.984375 0
  0.906250   1.000000 0
  0.921875   0.828125 0
  0.921875   0.843750 0
  0.921875   0.859375 0
  0.921875   0.953125 0
  0.921875   0.968750 0
  0.921875   1.000000 0
  0.921875   0.984375 0
  0.921875   0.890625 0
  0.921875   0.921875 0
  1.000000   0.656250 0
  0.984375   0.640625 0
  0.984375   0.671875 0
  1.000000   0.687500 0
  0.906250   0.734375 0
  0.984375   0.609375 0
  1.000000   0.625000 0
  1.000000   0.593750 0
  1.000000   0.609375 0
  0.906250   0.703125 0
  0.984375   0.578125 0
  0.968750   0.734375 0
  1.000000   0.578125 0
  0.906250   0.671875 0
  0.953125   0.750000 0
  0.968750   0.703125 0
  0.968750   0.687500 0
  0.937500   0.656250 0
  0.968750   0.656250 0
  0.953125   0.640625 0
  0.890625   0.750000 0
  0.968750   0.625000 0
  0.937500   0.734375 0
  0.984375   0.562500 0
  0.890625   0.656250 0
  0.937500   0.687500 0
  0.890625   0.609375 0
  0.937500   0.703125 0
  0.984375   0.531250 0
  0.906250   0.656250 0
  0.953125   0.703125 0
  0.906250   0.625000 0
  0.953125   0.671875 0
  0.906250   0.593750 0
  0.937500   0.625000 0
  0.953125   0.531250 0
  0.937500   0.531250 0
  0.953125   0.562500 0
  0.937500   0.562500 0
  0.937500   0.593750 0
  0.953125   0.718750 0
  1.000000   0.546875 0
  0.968750   0.718750 0
  0.953125   0.687500 0
  1.000000   0.515625 0
  0.968750   0.546875 0
  0.890625   0.640625 0
  0.968750   0.515625 0
  0.984375   0.593750 0
  0.890625   0.687500 0
  0.968750   0.562500 0
  0.937500   0.515625 0
  0.937500   0.546875 0
  0.890625   0.718750 0
  0.968750   0.593750 0
  0.968750   0.578125 0
  0.953125   0.546875 0
  0.953125   0.578125 0
  0.953125   0.609375 0
  0.984375   0.703125 0
  1.000000   0.718750 0
  0.984375   0.718750 0
  1.000000   0.750000 0
  0.984375   0.750000 0
  0.984375   0.734375 0
  1.000000   0.734375 0
  0.921875   0.546875 0
  0.906250   0.562500 0
  0.906250   0.531250 0
  0.921875   0.531250 0
  0.921875   0.515625 0
  0.906250   0.515625 0
  0.921875   0.578125 0
  0.921875   0.609375 0
  0.921875   0.687500 0
  0.921875   0.718750 0
  0.921875   0.750000 0
  0.921875   0.640625 0
  0.921875   0.671875 0
  0.890625   0.578125 0
  0.890625   0.546875 0
  0.890625   0.515625 0
  0.828125   0.796875 0
  0.875000   0.843750 0
  0.859375   0.828125 0
  0.781250   0.953125 0
  0.843750   0.843750 0
  0.765625   0.968750 0
  0.859375   0.890625 0
  1.000000   0.921875 0
  0.765625   0.984375 0
  0.859375   0.859375 0
  0.781250   0.984375 0
  0.875000   0.875000 0
  0.875000   0.906250 0
  0.781250   1.000000 0
  0.843750   0.875000 0
  0.765625   1.000000 0
  0.843750   0.906250 0
  0.875000   0.921875 0
  0.859375   0.921875 0
  0.875000   0.984375 0
  0.796875   0.984375 0
  1.000000   0.875000 0
  0.765625   0.937500 0
  0.843750   0.812500 0
  0.875000   0.953125 0
  0.796875   0.953125 0
  0.781250   0.921875 0
  0.859375   0.796875 0
  0.843750   0.921875 0
  0.859375   0.953125 0
  0.812500   0.984375 0
  0.843750   0.781250 0
  1.000000   0.843750 0
  0.765625   0.906250 0
  0.812500   0.953125 0
  0.859375   0.781250 0
  1.000000   0.812500 0
  0.765625   0.875000 0
  0.828125   0.953125 0
  1.000000   0.781250 0
  0.765625   0.843750 0
  0.828125   0.968750 0
  0.843750   1.000000 0
  0.859375   0.765625 0
  0.875000   0.796875 0
  0.781250   0.890625 0
  0.828125   0.937500 0
  0.843750   0.968750 0
  0.875000   0.765625 0
  0.781250   0.859375 0
  0.812500   0.781250 0
  0.781250   0.968750 0
  0.859375   0.968750 0
  0.812500   1.000000 0
  0.828125   0.765625 0
  0.875000   0.812500 0
  0.843750   0.984375 0
  0.875000   0.781250 0
  0.812500   0.968750 0
  0.843750   0.765625 0
  0.875000   0.937500 0
  0.812500   0.812500 0
  0.781250   0.843750 0
  0.875000   0.968750 0
  0.859375   0.937500 0
  0.875000   1.000000 0
  0.859375   1.000000 0
  0.859375   0.984375 0
  0.843750   0.953125 0
  0.765625   0.953125 0
  0.828125   0.984375 0
  0.828125   1.000000 0
  0.812500   0.875000 0
  0.828125   0.890625 0
  0.812500   0.890625 0
  0.828125   0.906250 0
  0.812500   0.921875 0
  0.828125   0.859375 0
  0.812500   0.843750 0
  0.828125   0.828125 0
  0.765625   0.796875 0
  0.781250   0.781250 0
  0.781250   0.812500 0
  1.000000   0.703125 0
  0.765625   0.765625 0
  0.765625   0.828125 0
  0.796875   0.796875 0
  0.796875   0.765625 0
  0.796875   0.875000 0
  0.796875   0.859375 0
  0.796875   0.828125 0
  0.796875   0.906250 0
  0.796875   0.937500 0
  0.796875   0.968750 0
  0.796875   1.000000 0
  0.875000   0.593750 0
  0.781250   0.687500 0
  0.843750   0.593750 0
  0.859375   0.609375 0
  1.000000   0.640625 0
  0.765625   0.703125 0
  0.843750   0.609375 0
  1.000000   0.671875 0
  0.765625   0.734375 0
  0.875000   0.640625 0
  0.875000   0.625000 0
  0.781250   0.718750 0
  0.859375   0.625000 0
  0.781250   0.750000 0
  0.875000   0.671875 0
  0.843750   0.640625 0
  0.843750   0.750000 0
  0.875000   0.734375 0
  0.859375   0.750000 0
  0.859375   0.718750 0
  0.859375   0.687500 0
  0.843750   0.671875 0
  0.875000   0.703125 0
  0.859375   0.656250 0
  1.000000   0.531250 0
  0.765625   0.593750 0
  0.828125   0.734375 0
  0.765625   0.687500 0
  0.781250   0.703125 0
  0.859375   0.578125 0
  0.812500   0.750000 0
  0.796875   0.687500 0
  0.875000   0.562500 0
  0.796875   0.718750 0
  0.843750   0.734375 0
  0.875000   0.531250 0
  0.843750   0.703125 0
  0.812500   0.703125 0
  1.000000   0.562500 0
  0.765625   0.625000 0
  0.781250   0.671875 0
  0.812500   0.718750 0
  0.859375   0.546875 0
  0.859375   0.515625 0
  0.781250   0.640625 0
  0.781250   0.609375 0
  0.796875   0.734375 0
  0.843750   0.562500 0
  0.796875   0.703125 0
  0.812500   0.734375 0
  0.765625   0.656250 0
  0.843750   0.531250 0
  0.828125   0.515625 0
  0.812500   0.531250 0
  0.812500   0.562500 0
  0.828125   0.546875 0
  0.828125   0.687500 0
  0.828125   0.718750 0
  0.828125   0.625000 0
  0.812500   0.640625 0
  0.828125   0.656250 0
  0.812500   0.671875 0
  0.812500   0.609375 0
  0.828125   0.609375 0
  0.812500   0.593750 0
  0.828125   0.593750 0
  0.828125   0.578125 0
  0.812500   0.578125 0
  0.796875   0.625000 0
  0.796875   0.593750 0
  0.796875   0.578125 0
  0.796875   0.562500 0
  0.781250   0.578125 0
  0.781250   0.562500 0
  0.796875   0.656250 0
  0.796875   0.515625 0
  0.781250   0.531250 0
  0.796875   0.546875 0
  0.781250   0.546875 0
  0.828125   0.750000 0
  0.765625   0.515625 0
  0.765625   0.546875 0
  0.937500   0.750000 0
  0.703125   0.812500 0
  0.953125   0.937500 0
  0.718750   1.000000 0
  0.640625   1.000000 0
  0.953125   0.906250 0
  0.718750   0.968750 0
  0.640625   0.968750 0
  0.984375   0.828125 0
  0.750000   0.890625 0
  0.718750   0.921875 0
  0.953125   0.875000 0
  0.718750   0.937500 0
  0.984375   0.859375 0
  0.750000   0.921875 0
  0.734375   0.937500 0
  0.968750   0.843750 0
  0.734375   0.906250 0
  0.687500   0.921875 0
  0.640625   0.843750 0
  0.703125   0.937500 0
  0.656250   0.859375 0
  0.718750   0.953125 0
  0.937500   0.859375 0
  0.703125   0.921875 0
  0.718750   0.984375 0
  0.937500   0.890625 0
  0.703125   0.953125 0
  0.750000   0.781250 0
  0.703125   0.968750 0
  0.921875   0.875000 0
  0.687500   0.937500 0
  0.734375   0.765625 0
  0.656250   0.890625 0
  0.703125   1.000000 0
  0.921875   0.906250 0
  0.687500   0.968750 0
  0.734375   0.796875 0
  0.875000   0.828125 0
  0.640625   0.890625 0
  0.984375   0.796875 0
  0.750000   0.859375 0
  0.656250   1.000000 0
  0.968750   0.812500 0
  0.734375   0.875000 0
  0.890625   0.906250 0
  0.656250   0.968750 0
  0.968750   0.781250 0
  0.734375   0.843750 0
  0.750000   0.843750 0
  0.890625   0.875000 0
  0.656250   0.937500 0
  0.968750   0.750000 0
  0.734375   0.812500 0
  0.640625   0.984375 0
  0.953125   0.796875 0
  0.718750   0.859375 0
  0.875000   0.890625 0
  0.640625   0.953125 0
  0.953125   0.765625 0
  0.718750   0.828125 0
  0.687500   0.781250 0
  0.953125   0.828125 0
  0.718750   0.890625 0
  0.687500   0.953125 0
[...]
CELL_DATA 4096
SCALARS scalar_value float 1
LOOKUP_TABLE default
0
0
0
0
0
0
0
0
0
0
0
0
0
0
0
0
0
0
0
0
0
0
0
0
0
0
0
0
0
0
0
0
0
0
0
0
0
0
0
0
0
0
0
0
0
0
0
0
0
0
0
0
0
0
0
0
0
0
0
0
0
0
0
0
0
0
0
0
0
0
0
0
0
0
0
0
0
0
0
0
0
0
0
0
0
0
0
0
0
0
0
0
0
0
0
0
0
0
0
0
0
0
0
0
0
0
0
0
0
0
0
0
0
0
0
0
0
0
0
0
0
0
0
0
0
0
0
0
0
0
0
0
0
0
0
0
0
0
0
0
0
0
0
0
0
0
0
0
0
0
0
0
2.10215e-10
0
0
0
0
0
0
0
0
4.84065e-09
0
0
1.33628e-08
0
0
0
0
0
0
0
-3.33374e-09
-6.96472e-08
0
0
0
0
0
1.80368e-09
0
0
0
0
0
0
0
0
0
0
0
0
6.12703e-10
0
0
0
0
0
6.74873e-09
0
0
0
1.09535e-07
0
0
0
0
0
0
0
0
-7.1502e-10
0
0
0
9.71933e-10
4.7526e-07
0
0
-9.23099e-09
0
0
-4.83627e-06
1.62632e-07
0
-3.19828e-10
-4.10972e-10
0
0
0
0
0
0
0
0
0
0
0
0
0
0
0
0
0
0
0
0
0
0
0
0
0
0
0
0
0
0
0
0
0
0
0
0
0
0
0
0
0
0
0
0
0
0
0
0
0
0
0
0
0
0
0
0
0
0
0
0
0
0
0
0
0
0
0
0
0
0
0
0
0
0
0
0
0
0
0
0
0
0
0
0
0
0
0
0
0
0
0
0
0
0
0
0
0
0
0
0
0
0
0
0
0
0
0
0
0
0
0
0
0
0
0
0
0
0
0
0
0
0
0
0
0
0
0
0
0
0
0
0
0
0
0
0
0
0
0
0
0
0
0
0
0
0
0
0
0
0
0
0
0
0
0
0
0
1.88402e-05
2.13229e-05
0.000378734
0
0
0
0
0
0
0
0
0
0
0
3.64729e-05
-1.15107e-05
-0.000101294
0.000151669
2.47191e-06
-3.27284e-06
-7.44659e-07
0
0
0
0
0
0
0
0
0
0
0
0
0
-1.48527e-09
0
0
0
-7.70879e-09
0
0
-5.19736e-06
0
0
0
0
7.10375e-08
-4.91889e-06
0
0
8.0608e-10
5.98967e-08
0
9.53424e-10
0
0
0
0
0
0
-2.47205e-08
0
0
0
7.80093e-07
-4.06984e-07
2.75018e-05
3.58361e-10
1.4849e-08
-4.85301e-07
0
-1.26631e-10
6.6167e-09
0
0
0
0
0
0
0
0
3.20279e-07
0
0
-3.63386e-08
-1.13915e-05
0
0
-4.24922e-07
1.97648e-08
1.61963e-08
-1.32445e-10
-1.87176e-10
0
0
1.45741e-09
-1.69848e-05
0
0
0
0
0
-3.81049e-08
-1.42223e-09
1.55926e-09
5.46855e-09
-2.37221e-08
2.91974e-07
3.48392e-07
-4.52109e-07
-6.24646e-07
-3.84591e-05
2.3638e-05
2.67358e-05
-9.96217e-08
0.000390005
8.6521e-06
1.5753e-10
1.42658e-06
0
2.70715e-08
-1.17324e-09
4.25293e-09
-1.07816e-08
1.93864e-09
1.84141e-10
0
0
0
0
0
0
0
0
0
0
0
0
0
0
0
0
0
0
0
0
0
0
0
0
0
0
0
0
0
0
0
0
0
0
0
0
0
0
0
0
0
0
0
0
0
0
0
0
0
0
0
0
0
0
0
0
0
0
0
0
0
0
0
0
0
0
0
0
0
0
0
0
0
0
0
0
0
0
0
0
0
0
0
0
0
0
0
0
0
0
0
0
0
0
0
0
0
0
0
0
0
0
0
0
0
0
0
0
0
0
0
0
0
0
0
0
0
0
0
0
0
0
0
0
0
0
0
0
0
0
-0.000107737
0.000762233
0.000977409
-2.83448e-07
-8.27711e-06
1.50295e-05
1.50896e-06
-4.41326e-08
2.10273e-08
1.31493e-07
-2.84758e-07
-3.75819e-10
2.7266e-09
1.34081e-09
0
0
0
0
0
1.22704e-10
0
0
0
0
0
0
0
0
-4.005e-07
1.0173e-07
2.64934e-09
0
0
1.51867e-06
0.0013876
0.000609375
0.0124567
-6.87919e-06
-5.87652e-05
0.0287189
0
-0.0001087
0
0
1.4443e-06
-4.2536e-08
0
7.76212e-07
7.92443e-10
0
0
-6.37136e-05
-2.43416e-08
1.15627e-06
1.21766e-09
0
0
1.29563e-09
2.00561e-08
0
0.00087913
-3.65926e-07
0
0
0
8.97319e-06
3.57618e-09
0
0
-2.43791e-07
0
1.78059e-05
0
0
2.17472e-05
0.000968408
1.08403e-05
-1.7898e-07
0
0
0
0
1.00696e-09
3.55564e-10
-3.44688e-08
1.5663e-06
-9.59359e-05
0.000922899
0
5.07487e-06
0
0
0
0
1.6837e-06
-4.95096e-08
2.42469e-05
-0.000123938
1.51535e-09
-4.61745e-08
1.05925e-09
0
3.5607e-09
-3.8348e-07
-2.85791e-07
1.43142e-10
0
0
0
0
0
0
0
0
0
0
0
0
0
1.87429e-10
3.65237e-09
-3.17819e-10
0
0
0
7.0693e-10
1.36094e-10
0
0
0
0
0
0
0
0
0
0
0
0
0
0
0
0
0
0
0
0
0
0
0
0
0
0
0
0
0
0
0
0
0
0
0
0
0
0
0
0
0
0
0
0
0
0
0
0
0
0
0
0
0
0
0
0
0
0
0
0
0
0
0
0
0
0
0
0
0
0
0
0
0
0
0
0
0
0
0
0
0
0
0
0
0
0
0
0
0
0
0
0
0
0
0
0
0
0
0
0
0
0
0
0
0
0
0
0
0
0
0
0
0
0
0
0
0
0
0
0
0
0
0
0
0
0
0
0
0
-1.96732e-07
-4.49295e-08
-3.01726e-06
-2.11912e-06
2.31985e-09
6.13128e-08
4.50945e-08
5.04073e-09
0.00128391
0.00155788
0.0627355
1.91683e-05
6.89019e-05
2.15043e-05
-3.86804e-08
-1.02748e-09
3.822e-08
8.60278e-10
-1.45088e-10
-1.04014e-09
-5.43292e-10
0
0
0
0
0
0
0
0
0
0
-3.89698e-06
0
0
0.000303469
7.93162e-10
0
0.1059
4.39363e-06
-1.78979e-10
-1.27517e-07
0
-1.26725e-09
0
1.42778e-05
0.00204152
6.41691e-08
0
0.00189271
0.000145848
-5.51765e-10
-3.15889e-06
0
0
0
0.112406
-1.39288e-10
-1.1925e-10
0
0
7.21409e-08
-1.46375e-09
0
0
0
0
0
-1.23063e-09
0
7.13826e-08
-8.45168e-10
0.0706754
4.67712e-08
-2.72067e-09
0
0
0
0
1.05214e-09
-8.88125e-08
-1.50635e-10
0.00133024
4.52208e-09
-2.50913e-06
0.0200773
6.6357e-08
-3.43612e-06
-9.23223e-08
3.39965e-09
2.0026e-07
1.68324e-05
7.70073e-08
1.86838e-06
-3.80935e-06
0.000205901
-9.10951e-05
0.00029538
0.0969855
0
0
0
0
0
0
0
0
0
0
0
0
0
0
0
0
0
0
1.79488e-05
0.000176485
0.000147101
1.92287e-05
2.1487e-05
0.00138065
0.0836741
0.0766628
0.00136524
0.00168112
0
0
-5.26103e-05
-1.16108e-05
-8.73101e-06
0.000511115
-0.0002113
-0.000191358
0.000191291
-0.000124162
-0.000268162
-0.000119963
-0.000282559
-0.000103105
-0.000320388
-0.000105347
0.000426866
0.000420668
4.60084e-05
0.000189405
5.85723e-06
0.000373417
0.000183719
0.000582486
2.63696
-4.59725e-05
1.79717
1.77073
-0.000131966
2.60627
-3.2171e-05
1.84846
1.8269
-9.25085e-05
2.67394
2.71076
-2.75009e-10
1.95992e-09
0.130158
2.63273e-05
-0.000920209
-5.247e-06
0.87026
-9.74544e-06
0.856531
2.18466e-10
0
0
3.4829e-08
5.58997e-09
0.139564
0.000251444
0.836122
0
4.26844e-08
0.150203
1.29609e-06
0.52953
9.93908e-05
1.82545
9.53874e-05
2.58738
2.76174
-4.39607e-05
1.20459
2.108e-07
0.00141191
-3.2064e-05
2.29362
1.01296e-05
0.474651
-3.14221e-05
0.0787574
0.123633
2.74094
1.85223
-5.58315e-05
2.73233
1.85856
-1.40526e-05
0.104555
1.05574e-09
1.36136e-05
-8.80611e-06
0.955214
6.82002e-06
0.000404073
0.119408
1.8732
0.665025
-1.55041e-05
1.69442
-1.90599e-05
0.818002
-1.078e-05
1.25969e-05
0.134046
5.61419e-06
4.72137e-06
2.30398e-05
1.38325
4.85045e-05
2.37141e-06
4.80446e-06
5.96605e-08
2.67444e-07
-4.13114e-09
-2.14892e-07
1.02997e-06
1.48865e-07
0.000140011
3.27759e-05
0.0149063
1.16008e-06
-8.86272e-10
0.0721407
0.849161
0.0170061
0.136432
0.877749
0.1585
0.891978
0.0019756
0.386144
0.000679762
2.28204e-05
2.21347e-07
6.71533e-06
1.18686e-06
2.19537e-08
7.13347e-05
4.28726e-05
1.57079e-05
3.08838e-05
-1.30377e-05
-3.71244e-05
-1.83804e-05
8.02095e-06
2.20699e-05
1.33184e-05
5.73261e-06
1.1184e-07
5.16197e-08
-1.01781e-08
-2.93381e-05
0.000102995
0.000106608
-7.13408e-05
-0.000146079
-0.000284032
-0.000382297
-4.37418e-08
-3.78584e-08
-1.00048e-07
1.76073e-07
4.84963e-07
-1.37745e-07
1.85132e-05
4.53272e-05
5.39277e-05
7.23017e-06
2.7313e-05
1.33881e-05
4.71808e-06
-1.74673e-06
2.00157e-06
-4.36787e-06
3.8002e-06
-4.60103e-08
1.43245e-05
-6.30521e-06
-2.44237e-06
4.94666e-06
2.57449
4.39493e-07
-8.20779e-08
1.17822e-07
2.14171
-5.47924e-05
1.74866
1.14158e-07
1.83258e-05
4.35333e-08
-1.73572e-05
-1.97121e-06
-5.38315e-07
-5.73285e-06
-3.46595e-09
-3.00647e-06
1.31703
1.56824e-08
-1.23138e-08
1.15445
1.6478e-07
1.62396
-1.12032e-08
2.17223e-08
0.87311
4.94197e-09
-2.22879e-09
0.715387
9.25113e-07
6.53545e-08
7.28239e-07
-9.23165e-05
2.44013
1.70798
1.94698e-10
0.0302219
0.0453838
4.39833e-09
0.114196
0.498142
2.36249e-10
4.84727e-07
0
1.34019e-09
-3.32941e-09
0.0844911
0.229181
3.12554e-10
0.000286365
-3.17629e-10
0.40555
0.0924357
-1.03483e-09
0.0833392
-0.000688668
2.78618e-07
-0.000346783
0
-2.56282e-05
5.95251e-07
-0.000268618
0
-7.80659e-05
1.59538e-06
-0.000188166
1.01515e-09
-0.00151946
-3.65365e-10
-0.000364932
-1.13389e-08
0.535116
0.803752
8.45769e-08
-4.53975e-06
-2.21202e-06
1.42798e-05
-7.70386e-07
-2.42795e-06
-3.12044e-07
4.74653e-05
-1.94107e-05
-3.62285e-05
-0.000793284
5.13186e-06
2.20826e-06
3.90359
3.31334
-0.00193236
-6.84671e-05
0.907617
0.0363265
3.54255
2.60583
1.99749
2.56416
1.24324
4.48159
4.25167
4.24292
4.47515
4.12461
4.23939
4.47439
4.38555
4.44811
4.18564
4.43765
4.22423
4.45943
4.46835
3.86248
3.50289
3.88174
4.18759
2.23309
3.40415
3.52844
0.455638
2.02556
3.90826
2.79981
4.5853
0.17695
0.820865
4.64263
3.37672
4.64443
4.6454
3.42697
4.64583
4.64555
4.5949
4.6423
3.79197
0.781919
0.000660641
-0.000100368
4.60519
4.6436
3.13926
-7.74425e-06
4.60023
4.64509
2.96441
3.51899
4.52731
3.98603
1.01982
-1.95924e-06
2.38401e-05
2.8733
1.00453
3.99189
2.86164
1.80656
2.82081
3.87897
4.0349
4.30909
3.37703
3.5135
1.83272
0.181845
2.00984
0.124493
4.58919
3.04871
0.0961925
4.60042
4.60986
4.50874
4.62851
3.51943
3.34933
4.3741
4.32036
0.000599809
0.188512
3.42417
1.89174
4.37992
4.03596
3.84481
4.57706
4.64565
3.89283
4.64559
4.64564
4.64563
4.64561
3.32279
4.56981
3.81225
4.64355
4.23456
4.64565
3.86503
4.64556
4.64417
4.64506
4.20734
4.64542
4.64127
3.28996
0.374735
2.70277
1.85723
1.30197
0.845734
0.00135896
6.04081e-05
0.0812833
0.00671937
-3.68195e-05
-3.6094e-05
3.1138
3.63755
3.76258
3.24191
3.02584
3.40618
2.87273
1.69575
1.95436
-9.51199e-05
-0.000646407
-0.000112789
-0.000188593
0.0267857
0.000207979
0.0291358
2.74025e-06
-9.18699e-07
-5.18824e-06
0.000155674
9.05015e-06
8.30816e-05
6.19189e-05
1.50739
1.2581
8.27375e-06
1.87765e-05
2.35485e-06
7.79109e-05
4.13418
-2.39971e-06
-0.000135358
4.59323
6.8123e-05
4.48889
-0.000352335
0.547371
0.555546
2.38322
2.5154
3.62739
4.42283
3.78287
4.2811
8.78133e-05
3.70894
4.45786
1.46183e-05
0.19285
4.42621
4.9218e-05
-0.000341345
3.75599
4.55598
-0.000310328
4.17934
4.61598
0.445052
4.60623
2.06737e-05
0.0281898
0.000193806
1.57145
0.0158919
3.24556
1.51534
4.16755
3.28039
4.23912
-9.91862e-05
-0.000306084
-0.000101871
0.033646
0.490187
5.84856e-06
-0.000288163
1.21728
2.5035
-3.20775e-05
0.475489
2.50311
3.84698
0.000131777
2.40438
-3.53064e-06
-0.000142218
3.12603
-1.88778e-05
2.78738e-05
2.45572
3.17266
5.24297e-05
1.38211
0.847086
1.45086
-3.80575e-05
0.00773817
-6.27238e-05
0.000173787
3.0722e-05
0.000305146
0.000704713
0.0183323
0.000607299
-0.000238787
5.9521e-05
-1.26543e-05
8.20719e-05
-3.2636e-06
6.34933e-05
-6.56886e-07
-3.5099e-06
-5.16112e-05
4.35508e-05
3.41339
3.80168
3.0822
4.02503
4.15349
4.40869
4.03743
2.35086
2.10344
2.84408
0.411162
0.448772
4.64552
4.64553
4.63947
4.64037
4.64568
4.6456
4.64558
4.61732
4.64625
4.62783
4.64563
4.64563
4.64562
4.64561
3.20355
3.81356
3.91412
3.37148
4.285
4.22993
4.48769
4.51683
4.64152
4.64542
4.17409
3.49268
3.73869
3.11632
2.76771
2.26777
1.20997
4.63881
3.8083
0.0724694
0.00180955
4.63854
1.31585
2.49023
4.6456
4.64008
0.0352079
1.73637
1.62813
3.4295
4.64453
4.64576
4.36617
4.52747
4.64559
4.64252
4.64624
4.64562
4.64567
4.64558
4.64556
4.64549
3.24825
0.262471
1.1987
4.64559
4.64558
4.45518
1.52356
2.36782
0.313999
2.61559
4.64561
4.0148
0.312442
4.6048
4.64122
4.64567
4.64559
4.64569
4.64558
4.64553
0.50082
0.00299414
4.64558
4.64548
4.6456
4.64572
4.64636
4.6455
4.64558
4.64558
0.56535
4.64563
4.64271
4.64546
4.64467
4.63525
4.64571
4.63274
4.31424
4.64613
4.64559
4.53713
4.29727
0.0500719
7.94778e-05
0.0386085
4.56987
2.19702
0.601713
0.65533
2.65909
2.701
3.92953
1.68081
4.64563
3.6431
3.39821
4.64564
4.39385
3.95349
3.02183
4.64561
4.20052
4.64564
4.59641
4.08961
4.64562
4.57265
4.64563
4.4544
1.82101
0.750528
-0.000537963
-0.000436371
0.124624
0.317147
-0.000533608
-0.000638113
-7.51695e-05
0.120094
-0.00127872
-0.00123108
0.0721621
9.6794e-05
1.31655e-05
7.86168e-05
-3.28659e-05
-2.57076e-05
7.57087e-06
0.000327588
3.24981
0.000391614
2.98094
-1.10407e-05
1.65727
0.701603
-8.05875e-05
1.33069
1.15515e-06
0.0821031
8.21559e-06
-0.00103761
-1.05138e-06
0.0110129
0.391842
1.28175
4.57765
4.57673
4.12392
3.52385
3.24063
4.43
3.69261
2.53755
2.45991
-0.000562185
0.112328
4.42374
4.4039
3.20369
1.82024
1.61455
0.157314
4.57789
4.14989
4.14572
3.2752
-7.51584e-05
8.38991e-06
9.88525e-06
1.67544e-05
3.39575e-06
-2.332e-05
2.95002e-05
2.558
0.672467
0.79337
3.76722
2.49056
4.41412
3.74826
2.26148
1.72106
3.17644
-5.48426e-05
-2.69532e-05
4.57324
6.82578e-05
6.42486e-05
-5.26026e-05
0.000102134
0.000313537
4.4172
-3.19251e-06
-0.000101175
2.38767e-06
8.8535e-06
-0.000592366
-5.31691e-05
0.000101222
-2.04375e-05
0.702453
4.46991
0.00010474
-0.000683633
-4.42416e-05
2.36978e-06
4.59672
4.57304
-0.002943
4.16676
-5.4279e-05
-5.17575e-05
3.94781
1.3987e-06
4.1515
4.25844
0.000281979
1.5918
4.59627
-0.000649585
2.29086
4.57075
4.41973
4.40979
3.80485
3.77721
2.62786
4.13066
4.16932
-0.00152236
0.884467
-0.00089832
1.77189
0.804753
2.63089
3.09383
3.30096
3.72455
3.78506
4.6456
4.64563
4.64551
1.45614
1.59976
0.627791
0.444804
3.22854
2.50578
2.43606
3.20955
4.64557
4.6456
4.6456
4.1801
3.76951
4.6456
4.64546
4.38781
4.55605
4.5561
3.72069
4.11378
4.10819
3.69773
0.666167
1.61525
1.53241
0.594023
2.41527
2.48722
3.18626
3.13815
4.64614
4.6456
3.18118
1.72073
4.64561
4.64561
4.63902
2.33271
0.729513
2.52872
4.64559
3.01226
4.15548
4.04735
2.54903
0.732099
3.97422
4.64552
4.6456
0.766021
4.64549
4.64537
4.6456
4.64367
4.61679
4.64538
3.77982
3.67868
4.44223
4.32239
4.38659
4.27876
4.64554
4.64602
4.64587
4.52159
3.19027
4.64557
4.04827
3.21182
4.51123
4.08965
4.64547
1.67791
3.67564
4.64568
4.6456
4.64553
4.4145
0.617568
4.57113
4.51278
4.6454
4.6337
4.62019
4.34716
3.72206
4.64355
4.64491
2.53169
4.48281
4.64563
4.64553
4.6455
1.50757
4.59039
1.6902
4.64561
4.64561
4.64595
4.64598
4.64554
4.64555
4.63455
4.6007
4.64552
4.64556
4.64557
3.55526
4.64564
4.32274
4.64559
4.6456
4.64545
4.64556
4.64563
4.64546
4.64443
4.61811
4.64545
4.6455
4.64537
4.64555
4.64552
4.64619
-1.86579e-05
-2.42975e-05
9.88192e-06
1.78549e-05
-9.36991e-05
-9.96546e-05
-0.000332945
2.74717
2.70425
1.8463
1.88086
3.86312
3.37155
3.40661
3.88925
4.6397
4.59623
4.64338
4.46251
4.44997
4.23193
0.859569
0.121592
0.10423
0.852786
-0.000747501
-0.000561407
-0.000460359
9.63371e-06
-1.64119e-05
-4.29868e-05
-1.50454e-05
1.57298e-05
-0.000144055
-3.284e-05
-9.00685e-05
-0.000299028
-0.000345333
-3.85977e-05
1.24896
-0.000231966
-2.03292e-05
4.58743
4.62969
-0.00077571
0.000716977
0.00255595
-9.67338e-05
2.88597e-06
1.92236e-05
-0.000890259
4.02895
-0.000438963
-4.33695e-05
0.0993527
-0.000962206
1.90108
0.249197
4.51841
4.64304
4.64569
4.01881
4.46119
2.96739
3.9008
3.57729
-5.70385e-05
2.23279
4.32349
0.000229906
3.60185
2.16109
0.00365327
4.32277
3.43062
4.59423
4.23453
-0.000341466
-1.70838e-05
-0.000745132
0.850806
2.77788
1.16514
0.328836
4.53761
0.28173
0.2994
0.00281748
4.62011
1.27773
3.60203
3.59281
3.01555
4.01148
3.03302
1.21407
2.25842
4.6459
2.22385
4.30203
4.51771
4.30254
4.60888
4.00952
4.64569
4.60964
4.49668
4.62048
4.49743
3.55841
4.0241
-3.25127e-06
2.90655
-5.64207e-05
2.03866
7.8697e-06
3.01784
-3.26692e-05
0.97829
4.21399
4.34526
-0.000696991
8.9751e-05
-0.00100791
-0.000728663
-0.000719568
1.12716e-05
0.143864
0
0
0
0
0
0
0
0
0
0
0
0
0
0
0
0
0
0
0
0
0
0
0
0
0
0
0
0
0
0
0
0
0
0
0
0
0
0
0
0
0
0
0
0
0
0
0
0
0
0
0
0
0
0
0
0
0
0
0
0
0
0
0
0
0
0
0
0
0
0
0
0
0
0
0
0
0
0
0
0
0
0
0
0
0
0
0
0
0
0
0
0
0
0
0
0
0
0
0
0
0
0
0
0
0
0
0
0
0
0
0
0
0
0
0
0
0
0
0
0
0
0
0
0
0
0
0
0
0
0
0
0
0
0
0
0
0
0
-1.17345e-10
0
0
0
0
0
0
-3.28134e-07
4.16831e-07
5.11939e-07
7.03258e-09
4.34587e-10
-7.37046e-09
6.7145e-09
0
0
0
0
0
-1.21984e-10
3.0734e-10
5.40582e-10
-7.16827e-05
8.56036e-09
2.92894e-09
-4.31179e-07
2.06471e-07
2.86482e-07
-6.29284e-05
0.0208126
-6.26081e-05
0.0179541
-3.26828e-07
-2.54412e-07
0.00112451
1.56705e-05
1.59964e-05
-2.9271e-10
0
0.000987742
1.62343e-05
3.85931e-08
0
0.00126281
0
0
0.0268291
0
0
0.067585
0.00123239
-2.13155e-06
0
0
0
0
0.0297919
1.53037e-05
-1.14997e-10
0
0
0
0
0.00120593
5.10335e-09
0
-1.46076e-10
0
-6.49033e-05
3.13258e-07
7.01706e-09
0
0
0
-6.34492e-05
0.0160392
0.0273507
2.31578e-08
0
0
0.00103356
0
0
0.00123777
5.00628e-09
-2.59067e-07
4.46294e-09
4.81727e-09
0.00106477
1.80433e-05
1.14404e-05
1.29693e-05
-1.42318e-07
-2.44171e-07
0
0
-3.11589e-07
0
0.0131845
-5.7494e-05
-2.27706e-10
0.000109186
2.64011e-10
0
0
0
0
0
-7.25491e-05
1.06358e-05
4.32207e-09
2.84938e-09
0
6.35547e-09
3.61843e-07
-2.28807e-07
0
2.19324e-10
0
0
0
0
0
0
0
0
0
0
0
0
0
0
0
0
0
0
0
0
0
0
0
0
0
0
0
0
0
0
0
0
0
0
0
0
0
0
0
0
0
0
0
0
0
0
0
0
0
0
0
0
0
0
0
0
0
0
0
0
0
0
0
0
0
0
0
0
0
0
0
0
0
0
0
0
0
0
0
0
0
0
0
0
0
0
0
0
0
0
0
0
0
0
0
0
0
0
0
0
0
0
0
0
0
0
0
0
0
0
0
0
0
0
0
0
0
0
0
0
0
0
0
0
0
0
0
0
-4.65849e-05
1.84044e-05
0
0
0
0
0
0
0
0
0
0
0
-6.98369e-08
2.68916e-09
1.27961e-06
-5.2558e-10
-2.45397e-08
1.00673e-09
0.000724056
0.000532309
0.000834585
0.00186697
-3.7303e-06
-1.48351e-05
-3.54099e-05
-1.66076e-06
0
0
-2.36796e-07
1.82251e-06
3.03614e-08
3.70885e-09
-9.26525e-08
-3.20533e-10
0
0.0279748
1.10524e-09
0
0
-3.87572e-05
0
-1.84389e-09
5.66253e-07
1.76559e-10
-1.28156e-08
0
5.94681e-10
0
0
6.0939e-07
-1.49373e-08
5.55689e-10
3.59107e-10
0
0
0
0
0
0
0
0
4.83008e-09
0
0
-2.39246e-07
0
0
0.000445426
0
-2.23285e-06
0.000715252
1.19591e-05
0
-3.43928e-07
0
0
0
0
-2.70846e-06
1.7458e-08
0
0
0.000275387
-9.33558e-07
0
0
0
0
-1.15618e-10
0
0.0011479
-7.4381e-05
0
0
0.00100532
-4.1287e-10
1.41425e-05
0
1.01919e-06
1.21049e-07
-2.30523e-07
-2.7542e-08
1.14045e-07
8.04545e-09
4.81213e-09
7.16404e-10
-2.18777e-08
-1.55828e-09
-6.05587e-06
1.3184e-06
2.44639e-06
0.000504328
0.0211093
0.000860585
-6.80711e-05
0
0
0
0
0
0
0
0
0
0
0
4.13672e-10
0
0
0
0
0
0
0
0
0
0
0
0
0
0
0
0
0
0
0
0
0
0
0
0
0
0
0
0
0
0
0
0
0
0
0
0
0
0
0
0
0
0
0
0
0
0
0
0
0
0
0
0
0
0
0
0
0
0
0
0
0
0
0
0
0
0
0
0
0
0
0
0
0
0
0
0
0
0
0
0
0
0
0
0
0
0
0
0
0
0
0
0
0
0
0
0
0
0
0
0
0
0
0
0
0
0
0
0
0
0
0
0
0
0
0
0
0
0
0
0
0
0
0
0
0
0
0
0
-7.06857e-10
1.19268e-07
-2.74329e-09
2.03653e-08
1.52729e-08
2.82366e-08
3.2535e-08
-5.92796e-07
-3.9976e-06
-8.1092e-07
4.17541e-05
2.83541e-05
0.0001824
1.72702e-09
2.0487e-09
-1.00843e-10
0
0
0
0
0
0
2.70644e-06
-4.7657e-06
-3.83306e-06
1.10268e-05
0.000309934
1.01915e-05
4.70442e-07
7.46629e-08
-5.13783e-08
-4.15653e-06
-1.32209e-07
-7.69796e-08
0
0
1.35698e-06
-3.99602e-10
0
0
3.92688e-07
-5.65265e-06
3.63206e-06
0
0
0
0
0
-9.41443e-07
0
-5.89013e-06
0
0
-8.13854e-08
0
0
0
0
0
0
8.77743e-10
1.46085e-07
0
0
0
-7.25222e-06
0
0
0
-3.07153e-09
0
4.69872e-05
-6.67053e-09
-4.3711e-10
0.000618743
3.2403e-10
4.45979e-09
-2.94163e-09
0
0
0
6.41314e-07
0
-3.64568e-10
0
-0.000150944
-1.8714e-09
0
-2.08408e-05
0
0.000671348
-0.000163323
0
0
0
0
0
0
0
0
0
0
0
0
0
0
0
0
0
0
0
0
0
2.01454e-10
-1.93144e-09
0
3.43495e-09
-4.05781e-08
1.33817e-08
-1.59782e-08
0
0
0
0
0
0
0
0
0
0
0
0
0
0
0
0
0
0
0
0
0
0
0
0
0
0
0
0
0
0
0
0
0
0
0
0
0
0
0
0
0
0
0
0
0
0
0
0
0
0
0
0
0
0
0
0
0
0
0
0
0
0
0
0
0
0
0
0
0
0
0
0
0
0
0
0
0
0
0
0
0
0
0
0
0
0
0
0
0
0
0
0
0
0
0
0
0
0
0
0
0
0
0
0
0
0
0
0
0
0
0
0
0
0
0
0
0
0
0
0
0
0
0
0
0
0
0
0
0
0
0
0
0
0
0
0
0
0
0
0
0
0
0
0
0
0
0
0
0
0
0
0
0
0
0
-8.68276e-10
-1.06429e-08
-6.2612e-09
-6.79712e-10
0
0
0
0
0
0
0
-3.52435e-10
0
0
0
0
0
-1.0178e-08
0
0
-3.67743e-10
-1.21465e-09
0
0
0
0
0
1.36044e-10
-4.73122e-09
0
0
0
0
0
0
0
0
0
0
0
0
0
0
0
0
0
0
0
0
0
0
0
-2.03617e-09
0
0
0
0
0
0
0
0
-7.68625e-10
0
0
0
0
0
0
0
-8.04899e-09
0
0
0
0
0
0
0
0
3.73905e-08
0
0
-1.11966e-10
0
0
0
0
-9.61878e-08
0
2.64559e-07
0
0
0
-6.90775e-09
0
-4.52779e-10
-1.55275e-09
-2.112e-09
0
0
4.85346e-09
0
0
0
0
0
0
0
0
0
4.64561
4.64546
4.64546
4.64555
4.64555
4.64557
4.64535
4.6453
4.64559
4.6456
4.60796
4.64459
4.64512
4.6107
3.61028
4.03038
3.62676
4.31528
4.31052
4.50404
0.438529
1.3704
1.4054
0.460856
2.32881
2.29483
3.07053
4.64563
4.64535
3.99437
3.55332
4.64561
3.94202
4.64555
4.49225
3.97206
3.91755
4.64552
4.64569
4.48143
4.64559
4.64532
4.64561
4.4831
1.20688
4.64561
0.332942
4.02229
3.91676
4.50014
4.478
4.64559
4.64559
3.04365
2.87399
4.64572
4.64557
4.64558
4.6456
4.64541
3.46641
4.6455
4.64552
4.24904
3.57712
3.48241
4.64561
4.60763
4.28789
4.27388
4.64545
4.61137
0.35043
4.64558
4.64564
4.64558
4.64568
0.303409
2.06237
4.64549
4.64563
1.10887
4.64544
4.64562
4.6456
4.64554
4.64562
4.64554
4.64563
4.64562
4.64553
2.75872
1.99404
3.44786
4.6456
4.6456
4.59317
4.64542
4.60697
4.20439
4.64385
4.64548
4.64559
4.44929
4.2564
3.3731
3.85005
2.83257
3.00292
2.30806
2.12079
2.25533
0.584461
3.00585
0.42672
1.33839
1.16613
1.47093
4.60217
2.11427
4.59813
4.64281
1.22755
4.48275
2.87931
4.64408
0.371742
4.27646
-2.17866e-05
-5.51959e-05
8.38679e-06
1.08944e-05
-0.000208399
-0.000144516
-5.37006e-05
-0.0001309
-0.000462516
-0.000570619
-0.000274318
8.98047e-05
0.560119
0.032317
0.609952
3.85118
3.2868
3.38134
3.90558
2.65236
2.52591
1.6917
4.49526
4.48306
4.23855
4.26587
-1.96246e-05
-0.000320949
3.61422
4.03207
4.04745
-6.92558e-05
1.85272e-05
4.36328
-0.000126487
4.64556
4.4687
-4.55244e-05
1.21978
3.60559
2.96472
1.63444e-05
-0.000124868
2.13947
1.13703
4.79636e-05
0.188336
0.0163964