# vtk DataFile Version 2.0
Unstructured Grid by M++
ASCII
DATASET UNSTRUCTURED_GRID
POINTS 4225 float
  0.890625   0.781250 0
  0.906250   0.765625 0
  0.968750   0.765625 0
  0.984375   0.781250 0
  0.968750   0.937500 0
  0.937500   0.906250 0
  0.968750   0.906250 0
  0.953125   0.890625 0
  0.953125   0.859375 0
  0.937500   0.875000 0
  0.953125   0.968750 0
  0.937500   0.937500 0
  0.890625   0.859375 0
  0.968750   0.968750 0
  1.000000   0.765625 0
  0.968750   0.953125 0
  0.953125   0.921875 0
  0.906250   0.843750 0
  0.968750   0.984375 0
  0.953125   0.953125 0
  0.906250   0.875000 0
  0.968750   0.859375 0
  0.937500   0.828125 0
  0.968750   0.875000 0
  0.953125   0.843750 0
  0.937500   0.843750 0
  0.953125   0.812500 0
  0.937500   0.953125 0
  0.953125   0.781250 0
  0.953125   1.000000 0
  1.000000   0.828125 0
  1.000000   0.859375 0
  0.906250   0.953125 0
  0.968750   1.000000 0
  1.000000   0.796875 0
  0.937500   0.796875 0
  0.937500   0.765625 0
  0.984375   0.875000 0
  0.890625   0.968750 0
  0.953125   0.984375 0
  0.906250   0.906250 0
  0.937500   0.984375 0
  0.984375   0.812500 0
  0.906250   0.937500 0
  0.984375   0.843750 0
  0.890625   0.937500 0
  0.906250   0.968750 0
  0.937500   1.000000 0
  0.968750   0.796875 0
  0.890625   0.921875 0
  0.968750   0.828125 0
  0.890625   0.953125 0
  0.937500   0.968750 0
  0.890625   0.890625 0
  1.000000   0.937500 0
  0.984375   0.921875 0
  0.890625   1.000000 0
  1.000000   0.906250 0
  1.000000   0.890625 0
  0.906250   0.984375 0
  0.984375   0.890625 0
  1.000000   0.953125 0
  0.984375   0.953125 0
  1.000000   0.968750 0
  0.984375   0.968750 0
  1.000000   1.000000 0
  0.984375   1.000000 0
  0.984375   0.984375 0
  1.000000   0.984375 0
  0.921875   0.812500 0
  0.906250   0.812500 0
  0.906250   0.796875 0
  0.921875   0.781250 0
  0.890625   0.812500 0
  0.890625   0.828125 0
  0.906250   0.828125 0
  0.890625   0.796875 0
  0.890625   0.984375 0
  0.906250   1.000000 0
  0.921875   0.828125 0
  0.921875   0.843750 0
  0.921875   0.859375 0
  0.921875   0.953125 0
  0.921875   0.968750 0
  0.921875   1.000000 0
  0.921875   0.984375 0
  0.921875   0.890625 0
  0.921875   0.921875 0
  1.000000   0.656250 0
  0.984375   0.640625 0
  0.984375   0.671875 0
  1.000000   0.687500 0
  0.906250   0.734375 0
  0.984375   0.609375 0
  1.000000   0.625000 0
  1.000000   0.593750 0
  1.000000   0.609375 0
  0.906250   0.703125 0
  0.984375   0.578125 0
  0.968750   0.734375 0
  1.000000   0.578125 0
  0.906250   0.671875 0
  0.953125   0.750000 0
  0.968750   0.703125 0
  0.968750   0.687500 0
  0.937500   0.656250 0
  0.968750   0.656250 0
  0.953125   0.640625 0
  0.890625   0.750000 0
  0.968750   0.625000 0
  0.937500   0.734375 0
  0.984375   0.562500 0
  0.890625   0.656250 0
  0.937500   0.687500 0
  0.890625   0.609375 0
  0.937500   0.703125 0
  0.984375   0.531250 0
  0.906250   0.656250 0
  0.953125   0.703125 0
  0.906250   0.625000 0
  0.953125   0.671875 0
  0.906250   0.593750 0
  0.937500   0.625000 0
  0.953125   0.531250 0
  0.937500   0.531250 0
  0.953125   0.562500 0
  0.937500   0.562500 0
  0.937500   0.593750 0
  0.953125   0.718750 0
  1.000000   0.546875 0
  0.968750   0.718750 0
  0.953125   0.687500 0
  1.000000   0.515625 0
  0.968750   0.546875 0
  0.890625   0.640625 0
  0.968750   0.515625 0
  0.984375   0.593750 0
  0.890625   0.687500 0
  0.968750   0.562500 0
  0.937500   0.515625 0
  0.937500   0.546875 0
  0.890625   0.718750 0
  0.968750   0.593750 0
  0.968750   0.578125 0
  0.953125   0.546875 0
  0.953125   0.578125 0
  0.953125   0.609375 0
  0.984375   0.703125 0
  1.000000   0.718750 0
  0.984375   0.718750 0
  1.000000   0.750000 0
  0.984375   0.750000 0
  0.984375   0.734375 0
  1.000000   0.734375 0
  0.921875   0.546875 0
  0.906250   0.562500 0
  0.906250   0.531250 0
  0.921875   0.531250 0
  0.921875   0.515625 0
  0.906250   0.515625 0
  0.921875   0.578125 0
  0.921875   0.609375 0
  0.921875   0.687500 0
  0.921875   0.718750 0
  0.921875   0.750000 0
  0.921875   0.640625 0
  0.921875   0.671875 0
  0.890625   0.578125 0
  0.890625   0.546875 0
  0.890625   0.515625 0
  0.828125   0.796875 0
  0.875000   0.843750 0
  0.859375   0.828125 0
  0.781250   0.953125 0
  0.843750   0.843750 0
  0.765625   0.968750 0
  0.859375   0.890625 0
  1.000000   0.921875 0
  0.765625   0.984375 0
  0.859375   0.859375 0
  0.781250   0.984375 0
  0.875000   0.875000 0
  0.875000   0.906250 0
  0.781250   1.000000 0
  0.843750   0.875000 0
  0.765625   1.000000 0
  0.843750   0.906250 0
  0.875000   0.921875 0
  0.859375   0.921875 0
  0.875000   0.984375 0
  0.796875   0.984375 0
  1.000000   0.875000 0
  0.765625   0.937500 0
  0.843750   0.812500 0
  0.875000   0.953125 0
  0.796875   0.953125 0
  0.781250   0.921875 0
  0.859375   0.796875 0
  0.843750   0.921875 0
  0.859375   0.953125 0
  0.812500   0.984375 0
  0.843750   0.781250 0
  1.000000   0.843750 0
  0.765625   0.906250 0
  0.812500   0.953125 0
  0.859375   0.781250 0
  1.000000   0.812500 0
  0.765625   0.875000 0
  0.828125   0.953125 0
  1.000000   0.781250 0
  0.765625   0.843750 0
  0.828125   0.968750 0
  0.843750   1.000000 0
  0.859375   0.765625 0
  0.875000   0.796875 0
  0.781250   0.890625 0
  0.828125   0.937500 0
  0.843750   0.968750 0
  0.875000   0.765625 0
  0.781250   0.859375 0
  0.812500   0.781250 0
  0.781250   0.968750 0
  0.859375   0.968750 0
  0.812500   1.000000 0
  0.828125   0.765625 0
  0.875000   0.812500 0
  0.843750   0.984375 0
  0.875000   0.781250 0
  0.812500   0.968750 0
  0.843750   0.765625 0
  0.875000   0.937500 0
  0.812500   0.812500 0
  0.781250   0.843750 0
  0.875000   0.968750 0
  0.859375   0.937500 0
  0.875000   1.000000 0
  0.859375   1.000000 0
  0.859375   0.984375 0
  0.843750   0.953125 0
  0.765625   0.953125 0
  0.828125   0.984375 0
  0.828125   1.000000 0
  0.812500   0.875000 0
  0.828125   0.890625 0
  0.812500   0.890625 0
  0.828125   0.906250 0
  0.812500   0.921875 0
  0.828125   0.859375 0
  0.812500   0.843750 0
  0.828125   0.828125 0
  0.765625   0.796875 0
  0.781250   0.781250 0
  0.781250   0.812500 0
  1.000000   0.703125 0
  0.765625   0.765625 0
  0.765625   0.828125 0
  0.796875   0.796875 0
  0.796875   0.765625 0
  0.796875   0.875000 0
  0.796875   0.859375 0
  0.796875   0.828125 0
  0.796875   0.906250 0
  0.796875   0.937500 0
  0.796875   0.968750 0
  0.796875   1.000000 0
  0.875000   0.593750 0
  0.781250   0.687500 0
  0.843750   0.593750 0
  0.859375   0.609375 0
  1.000000   0.640625 0
  0.765625   0.703125 0
  0.843750   0.609375 0
  1.000000   0.671875 0
  0.765625   0.734375 0
  0.875000   0.640625 0
  0.875000   0.625000 0
  0.781250   0.718750 0
  0.859375   0.625000 0
  0.781250   0.750000 0
  0.875000   0.671875 0
  0.843750   0.640625 0
  0.843750   0.750000 0
  0.875000   0.734375 0
  0.859375   0.750000 0
  0.859375   0.718750 0
  0.859375   0.687500 0
  0.843750   0.671875 0
  0.875000   0.703125 0
  0.859375   0.656250 0
  1.000000   0.531250 0
  0.765625   0.593750 0
  0.828125   0.734375 0
  0.765625   0.687500 0
  0.781250   0.703125 0
  0.859375   0.578125 0
  0.812500   0.750000 0
  0.796875   0.687500 0
  0.875000   0.562500 0
  0.796875   0.718750 0
  0.843750   0.734375 0
  0.875000   0.531250 0
  0.843750   0.703125 0
  0.812500   0.703125 0
  1.000000   0.562500 0
  0.765625   0.625000 0
  0.781250   0.671875 0
  0.812500   0.718750 0
  0.859375   0.546875 0
  0.859375   0.515625 0
  0.781250   0.640625 0
  0.781250   0.609375 0
  0.796875   0.734375 0
  0.843750   0.562500 0
  0.796875   0.703125 0
  0.812500   0.734375 0
  0.765625   0.656250 0
  0.843750   0.531250 0
  0.828125   0.515625 0
  0.812500   0.531250 0
  0.812500   0.562500 0
  0.828125   0.546875 0
  0.828125   0.687500 0
  0.828125   0.718750 0
  0.828125   0.625000 0
  0.812500   0.640625 0
  0.828125   0.656250 0
  0.812500   0.671875 0
  0.812500   0.609375 0
  0.828125   0.609375 0
  0.812500   0.593750 0
  0.828125   0.593750 0
  0.828125   0.578125 0
  0.812500   0.578125 0
  0.796875   0.625000 0
  0.796875   0.593750 0
  0.796875   0.578125 0
  0.796875   0.562500 0
  0.781250   0.578125 0
  0.781250   0.562500 0
  0.796875   0.656250 0
  0.796875   0.515625 0
  0.781250   0.531250 0
  0.796875   0.546875 0
  0.781250   0.546875 0
  0.828125   0.750000 0
  0.765625   0.515625 0
  0.765625   0.546875 0
  0.937500   0.750000 0
  0.703125   0.812500 0
  0.953125   0.937500 0
  0.718750   1.000000 0
  0.640625   1.000000 0
  0.953125   0.906250 0
  0.718750   0.968750 0
  0.640625   0.968750 0
  0.984375   0.828125 0
  0.750000   0.890625 0
  0.718750   0.921875 0
  0.953125   0.875000 0
  0.718750   0.937500 0
  0.984375   0.859375 0
  0.750000   0.921875 0
  0.734375   0.937500 0
  0.968750   0.843750 0
  0.734375   0.906250 0
  0.687500   0.921875 0
  0.640625   0.843750 0
  0.703125   0.937500 0
  0.656250   0.859375 0
  0.718750   0.953125 0
  0.937500   0.859375 0
  0.703125   0.921875 0
  0.718750   0.984375 0
  0.937500   0.890625 0
  0.703125   0.953125 0
  0.750000   0.781250 0
  0.703125   0.968750 0
  0.921875   0.875000 0
  0.687500   0.937500 0
  0.734375   0.765625 0
  0.656250   0.890625 0
  0.703125   1.000000 0
  0.921875   0.906250 0
  0.687500   0.968750 0
  0.734375   0.796875 0
  0.875000   0.828125 0
  0.640625   0.890625 0
  0.984375   0.796875 0
  0.750000   0.859375 0
  0.656250   1.000000 0
  0.968750   0.812500 0
  0.734375   0.875000 0
  0.890625   0.906250 0
  0.656250   0.968750 0
  0.968750   0.781250 0
  0.734375   0.843750 0
  0.750000   0.843750 0
  0.890625   0.875000 0
  0.656250   0.937500 0
  0.968750   0.750000 0
  0.734375   0.812500 0
  0.640625   0.984375 0
  0.953125   0.796875 0
  0.718750   0.859375 0
  0.875000   0.890625 0
  0.640625   0.953125 0
  0.953125   0.765625 0
  0.718750   0.828125 0
  0.687500   0.781250 0
  0.953125   0.828125 0
  0.718750   0.890625 0
  0.687500   0.953125 0
[...]
CELL_DATA 4096
SCALARS scalar_value float 1
LOOKUP_TABLE default
0
0
0
-2.64384e-05
-7.42233e-06
0.000127731
4.19327e-07
-7.33884e-07
1.27387e-06
7.98548e-07
-3.07235e-09
-3.6506e-08
0
0
0
0
0
0
0
0
0
0
0
0
0
0
2.98038e-09
-6.21498e-10
-5.606e-10
-1.88883e-08
-1.04962e-09
0
0
2.67036e-09
0
0
-1.01621e-08
0
0
0
1.39881e-08
-3.1571e-07
2.40987e-07
0
0
0
0
0
-1.95479e-10
0
0
-1.81445e-07
-1.63644e-09
0
0
7.53119e-09
-3.89764e-10
0
0
1.58969e-09
0
0
0
2.37163e-09
-1.4923e-09
0
0
0
0
2.56753e-10
-7.4368e-08
0
-1.28081e-09
9.43512e-10
6.78573e-09
1.35387e-10
4.04799e-10
0
3.78429e-10
8.37668e-08
0
0
1.60696e-10
6.5881e-05
-1.26781e-08
1.37584e-10
0
0
0
0
0
0
0
0
0
4.29649e-08
-1.79833e-09
2.96389e-07
-2.39256e-08
0
-1.37025e-10
-8.39038e-10
-1.26232e-09
0
0
0
0
0
0
0
0
0
0
0
0
0
0
0
0
1.6166e-10
-1.24462e-07
2.25742e-06
1.4516e-07
-1.23819e-08
-6.63332e-07
6.61313e-07
-5.26737e-07
-6.60661e-06
3.70461e-05
-3.65527e-05
-7.59925e-06
-3.71674e-07
-1.24429e-05
-3.45092e-06
-4.65973e-07
0.00339454
0.00080858
0.00199473
1.2786e-06
0.000233981
0.00194349
0.00175107
-0.000546657
-0.000532417
0.000330922
0.00300325
-9.40718e-05
2.08362e-05
0.00407885
-0.000757097
-0.000461197
-0.000455146
-0.000753511
-4.07508e-07
0.409571
0.658054
1.02607e-05
2.22317
2.57517
-2.08036e-06
1.08659
1.07248
-2.84965e-06
0.862462
2.11686
-2.90738e-05
1.87203
2.93524e-08
-2.53262e-07
1.55187
7.58678e-06
-1.03031e-06
1.33768
1.62327
0.194656
0.158461
0.0565869
-4.55893e-06
-0.000273709
0.0034645
-1.957e-06
0.00627282
-3.68577e-07
-4.81783e-09
5.29903e-08
0.000179147
7.32097e-06
0.000904001
0.212763
0.680736
0.0777091
1.00308
0.0190872
3.38636e-05
0.611347
2.07532e-05
6.71659e-09
0.122393
0.312366
-2.49036e-05
0.002192
-0.000456745
1.86493
-3.24529e-06
1.03971
1.33143e-06
-7.26733e-05
2.46044e-05
-0.000678253
7.4834e-06
1.06636
1.60645
0.00194726
-5.7591e-08
-2.10885e-05
0.484155
0.637886
-4.81519e-07
-0.000207886
0.187336
3.95312e-06
0.0404042
1.39898
0.833429
5.89292e-05
2.37884
2.60378
0.000367275
0.0234983
-6.71495e-05
1.47877e-07
-0.000118774
2.91263e-05
-0.00155897
0.000513662
0.170222
-1.51462e-07
0.000354897
0.031621
0.58352
-5.25188e-05
1.89207
0.904766
0.012371
-0.00371531
-2.70658e-06
0.154742
-0.000137642
2.75417
-0.000215084
2.72606
1.55786
-0.000102008
2.00705
-7.22882e-05
2.71823
3.31284e-08
-4.06818e-09
1.38883e-06
1.03636e-06
0.000205712
0.00024601
-0.000421027
-3.38784e-06
-3.05076e-05
-2.23059e-05
-3.47524e-06
-4.72424e-08
-4.1708e-08
-5.48589e-10
-1.36454e-09
1.63411e-09
1.60603e-09
-1.13933e-10
-3.39822e-10
1.2162e-10
0
0
0
0
-2.72175e-10
0
0
-3.2451e-10
0.000886443
-0.000862168
-0.000447815
-4.34446e-05
0.000278898
2.06865e-05
-4.07882e-07
6.86085e-09
4.66354e-09
-1.36214e-10
-5.29177e-07
1.56115e-08
-4.60512e-06
4.91835e-10
-7.90408e-08
-0.000825922
1.23032e-06
-1.60669e-07
-5.45931e-09
-8.15264e-07
0.000172715
-2.2955e-06
-6.97822e-06
1.3048e-07
2.03318e-06
2.40428e-09
-2.96432e-10
4.08954e-07
0
6.36022e-07
-1.42893e-06
8.59289e-09
5.90791e-07
4.2186e-09
-1.57535e-08
-4.49667e-10
-2.76658e-09
6.04884e-09
-2.22581e-09
2.07141e-08
-9.6048e-10
2.9804e-07
-1.22948e-05
-2.20179e-05
1.83169e-07
1.24571e-08
-8.21179e-09
8.7883e-10
3.87005e-10
-1.74038e-09
9.08675e-07
-2.62232e-05
2.0879e-07
3.58917e-06
-1.44716e-05
4.03301e-07
-1.05449e-07
-5.78567e-06
0.000114581
7.86484e-05
2.38281e-06
-1.02329e-05
0.000621294
3.1069e-06
8.64571e-10
-1.39335e-05
0.00022529
-4.36183e-05
-1.33758e-05
-3.17468e-06
-2.9399e-06
0.000175689
-0.000907434
6.90257e-09
0
0
2.02814e-07
0
0
0
-5.49218e-07
1.84873e-10
-1.73484e-08
-3.49161e-10
-3.92481e-08
0
1.00261e-07
0
-1.126e-08
0
0
-1.13558e-07
0
0
0
0
0
-7.84715e-08
8.19503e-08
-3.59436e-08
3.96312
3.66886
3.12582
0.00341346
0.0222955
-0.000806953
0.925605
0.250217
0.0253207
0.670984
2.62837
2.75634
1.89814
1.781
3.48872
3.32789
2.98158
3.0472
3.5274
3.7657
3.92507
4.35307
3.94774
4.07151
4.38097
3.29848
3.71663
4.10681
3.54805
0.00187177
0.10342
0.00251292
1.13948
1.26986
2.85952
3.71894
2.36118
2.85079
3.56654
2.60091
0.361971
4.01311
3.81083
0.217867
0.000552784
0.00607515
4.27677
4.27269
3.35286
0.00480075
4.42773
4.47033
4.52976
4.56637
4.13984
4.60688
3.57638
0.878168
0.00444511
0.00569817
3.81816
3.43007
1.06014
4.52659
3.03241
4.40631
4.26783
3.05729
4.52378
4.56147
3.406
4.60003
4.62273
3.14852
4.46564
4.09542
0.0283273
3.2439
1.61022
0.0671147
4.19515
3.22522
2.51365
4.25566
2.65159
2.81131
3.69704
4.54407
4.18355
4.13284
4.35729
4.30923
4.48717
4.45012
3.53115
4.64714
2.43965
1.30333
0.131802
0.00219568
3.39892
-0.00643718
4.64185
3.72188
4.63817
3.40401
4.59709
4.58233
3.68558
4.63003
4.48822
3.86308
3.8396
4.35918
2.46081
3.43846
2.04619
4.63986
2.27547
2.55891
4.03753
4.04959
4.64639
3.93732
4.22344
4.63957
4.11015
2.54724
3.89704
2.45183
4.27316
2.18025
3.40051
2.75611
0.907213
0.352929
1.01661
1.92818
0.014434
0.0500443
0.164123
-0.0203772
-0.000899393
-0.00647882
-0.00598046
-0.0106829
0.00107536
0.00549027
-0.0173162
3.68673e-05
-0.000767747
0.000220825
-0.00369881
-0.00033115
-0.00556077
1.71228e-05
0.000157663
4.42558e-06
0.000672469
1.61248e-05
0.00267798
3.568
0.787477
0.457601
2.4187
4.64248
1.70845
4.63895
-0.000187112
4.67739
4.64027
4.64471
-0.00342302
4.64694
4.64406
1.17383
0.00343783
3.77308
0.00949442
4.31174
3.11563
-0.00207933
4.62723
3.91432
-0.000257534
2.98515
-3.43531e-05
2.01668
4.18794
0.00158329
4.4538
4.39097
0.00188255
4.59741
-2.2491e-05
3.41253
-0.022601
4.63678
4.06741
4.64503
0.00839401
4.50288
3.94634
4.64882
0.000407057
3.42593
4.66654
3.2587
-0.000545527
4.54445
4.62453
0.137004
4.64352
4.64122
-0.000641455
4.31359
-6.52852e-05
3.81622
4.65651
4.67903
4.64593
0.00773435
4.67001
4.65556
0.000534098
4.56738
0.0113597
0.923342
0.021798
0.0695981
0.219425
2.5401
3.64118
2.22443
4.18883
1.56607
4.41208
2.47208
4.64678
2.83064
1.9353
1.80161
-5.91094e-06
-3.57522e-06
2.52977
-3.45586e-05
6.55065e-07
-6.19785e-05
1.42916
4.82391e-06
-7.06583e-06
0.260946
-6.43352e-07
-0.000147099
4.10821
0.00111467
2.0792
2.01556
0.817409
4.47604
4.0453
3.12177
3.84896
4.54294
4.646
4.63275
4.30297
4.64612
4.63167
4.64559
4.18787
4.64621
4.6471
4.64578
4.61026
4.6453
2.56372
2.96686
4.61854
4.50908
4.65295
3.43764
3.84582
4.65159
4.64241
4.64477
4.64585
4.13406
2.51631
3.26085
-0.026332
3.18454
-0.0050088
4.43887
0.406549
-0.0106677
4.64441
0.916652
4.62128
4.64429
3.13561
4.64519
4.51514
4.55644
4.20661
3.51239
4.64443
3.66738
3.54279
2.242
4.41283
4.54252
4.63003
4.64612
4.64559
4.47126
0.0875149
4.62025
4.0691
3.6675
4.59273
3.98572
3.36296
4.46015
4.38986
2.2247
4.64447
1.5099
4.64383
4.63241
2.14278
-0.0237603
0.683802
2.98898
4.64269
4.45389
4.30187
4.64761
3.7622
4.64549
2.85457
1.47606
0.119392
-0.00821338
4.63212
1.30672
4.64661
4.65312
4.6455
4.64865
2.66382
4.27726
4.24987
0.356369
4.63166
4.05937
4.5927
4.64509
4.53407
3.82891
3.49855
4.64432
4.64373
4.64564
4.64552
4.64657
1.26594
0.320154
2.35538
0.00351709
3.07587
0.704106
1.53306
0.0834957
4.64223
4.64708
3.93658
4.64775
4.64448
4.17416
4.58082
4.64602
4.63938
4.54099
4.64526
4.64575
4.64554
4.64587
4.64614
4.64925
4.64549
4.64543
4.64528
4.64552
4.64492
4.64547
4.64538
4.60393
4.63821
4.64961
4.6411
4.48646
4.58775
4.52879
4.41025
4.6436
4.64383
4.39576
4.23129
4.04494
4.26781
4.63061
4.54857
4.58684
4.6398
4.64681
4.6458
4.64206
4.56544
4.64268
4.63804
4.64549
4.64725
4.55903
4.62424
4.64742
4.62052
4.45444
3.48033
3.8416
4.09162
4.31627
4.64253
3.13543
4.64558
3.59819
4.64458
3.9951
4.64345
4.51756
3.06585
4.30067
4.01827
3.82003
3.37084
4.19854
4.64455
4.44782
4.46447
4.64096
3.15268
4.1132
4.64286
4.38744
3.48325
4.64211
3.9401
4.64548
4.64555
4.64553
4.26331
3.01749
3.62464
4.64553
4.64757
1.72275
4.64555
4.64554
4.61737
1.86186
4.64539
4.64547
4.64501
4.64542
4.64237
4.64492
4.64558
2.43063
3.37374
3.69706
2.5114
4.12216
2.57931
4.00411
3.75152
4.64524
4.64638
4.64353
4.64822
4.64478
4.6495
4.64654
4.59817
4.64483
4.56615
4.64482
4.63044
4.6452
4.6456
4.64439
4.64501
4.64539
4.64548
4.64537
4.2418
3.85001
4.33156
3.73112
0.818773
3.50506
4.43273
4.51124
2.28005
1.09321
0.433
1.6395
2.47036
1.80756
2.88797
3.39276
0.318422
0.0006242
0.0984452
0.0352657
0.635767
1.06762
2.35553
2.34742
1.07507
3.43679
4.08218
3.05047
3.78475
3.93887
4.29841
4.45427
4.64371
4.63087
4.64249
4.64497
4.62448
3.31824
4.64559
2.4283
3.79993
4.64556
1.29441
2.95796
4.64553
0.295465
0.196573
4.60999
1.62889
4.64564
2.8747
4.64551
1.88882
2.6334
1.73899
4.64562
0.708107
-0.0308867
4.60485
0.447376
4.64421
4.57442
4.64561
2.30978
3.54375
4.63461
4.23586
4.64558
4.07728
3.98254
4.64516
4.64499
4.64557
4.6151
4.62592
4.43391
4.43602
3.31808
4.54435
0.0010951
4.47
3.67681
4.23995
4.56335
4.64542
4.64294
4.27884
4.15983
4.54663
-0.0017619
4.44639
4.249
-0.00218075
4.31758
3.9784
4.36793
4.54974
2.90337
3.25749
3.83089
0.832613
3.55368
3.55501
-0.0155806
2.95
3.04288
4.64171
4.26755
4.00026
4.64005
3.69044
4.40755
4.06955
4.64531
4.51047
4.44522
4.64536
4.25269
4.587
4.64551
4.63016
4.63002
4.64556
4.57184
4.11601
-0.0355193
3.96644
0.0518236
3.77695
3.79673
0.00674322
3.60875
-0.00215944
3.30907
4.56393
4.44587
9.76358e-07
-3.43669e-07
2.50336e-06
-1.03443e-06
4.97551e-06
-2.14327e-06
-3.84626e-06
-7.07544e-07
1.31642e-06
-7.19071e-08
3.55278e-07
3.4396e-07
-3.03727e-07
6.87239e-06
1.98014e-05
2.45848e-06
0.000425119
-0.00129208
-0.000801734
-0.00119199
-0.00014409
-0.000190219
-4.72207e-07
1.42334e-07
-3.95109e-07
-6.29468e-08
4.55478e-08
-2.75282e-07
-2.0733e-07
1.04373e-06
-8.3987e-08
5.81511e-07
-1.48196e-06
-2.77312e-06
-0.000232937
-7.4391e-05
6.40373e-08
-1.13582e-05
0.179008
0.413964
-8.82067e-07
1.78129e-07
2.6507e-07
-0.000339138
-0.000362153
-0.000290586
-0.000697873
-0.000557562
-7.05437e-08
0.644457
3.85265e-07
-0.000196325
-0.000731763
7.76103e-07
0.000166885
-0.00216068
0.000294212
-5.71594e-05
-5.65639e-05
-1.62719e-05
-1.77565e-06
-4.89529e-07
-0.000922823
-0.000667479
0.000229751
2.39733e-07
1.9973e-05
-0.000219018
-0.000449685
2.5412e-06
0.000296513
1.00615e-07
-1.79955e-06
3.58185e-06
-3.41824e-08
-2.65459e-06
-1.73537e-06
2.19542e-06
0.00257292
-0.000664801
0.0113005
-4.61518e-07
-0.000353366
-2.21179e-05
0.00409493
-5.48558e-08
-1.94006e-06
-1.67385e-05
2.11894e-07
4.46505e-06
2.80915e-08
-8.21054e-08
0.146451
-0.00022166
0.000713322
-0.000242603
1.10811
-0.000183181
-1.13469e-05
-0.000116194
-0.000266983
-0.000695891
-0.0004272
-0.000470661
-0.0016293
0.106256
0.0515905
-0.00294579
0.00178836
-0.00283484
0.00218997
-0.00383743
-0.000778569
-6.23337e-07
5.46326e-06
2.09506e-05
-3.23504e-06
-1.23248e-06
9.25985e-07
1.74364e-06
-0.00100057
-1.62681e-05
-0.00242134
-0.00289268
-0.00030896
-0.00184858
-0.000637427
-0.00107559
1.0131e-08
1.07863e-08
0
9.35754e-09
-2.68672e-08
-1.12242e-08
-4.2992e-08
1.14685e-09
-3.80843e-10
3.46212e-09
6.37416e-09
0
0
0
5.26242e-08
-4.47447e-09
2.66244e-08
2.32906e-08
-1.01331e-07
2.27691e-08
-1.5917e-07
-1.54949e-10
0
-1.69541e-10
-1.70948e-10
3.89718e-10
1.60222e-09
1.7395e-08
-3.79411e-10
-1.18865e-08
0
-5.14364e-09
-2.57602e-09
-4.60568e-10
0
0
0
0
0
3.01975e-10
0
0
-1.70342e-09
-1.33461e-07
0
0
-2.41484e-10
-9.50481e-08
-5.34571e-08
-5.17747e-08
0
0
-2.61583e-10
0
0
0
0
0
0
2.39088e-08
0
1.22268e-10
6.29842e-10
-8.61292e-10
-3.87575e-08
0
0
1.03477e-08
0
0
7.60224e-09
0
1.09289e-10
6.09871e-10
-7.0107e-08
-1.75116e-07
-1.13957e-08
0
1.3741e-08
2.14156e-09
0
-3.92374e-08
3.16726e-09
0
0
0
0
0
-6.94781e-09
1.79453e-09
0
1.47635e-08
0
-6.17432e-09
3.25826e-09
0
-7.77989e-10
-6.77795e-10
-7.13481e-10
-1.86948e-09
0
-4.39005e-10
-1.07712e-09
1.03757e-09
0
1.28633e-09
-1.19735e-09
-3.81034e-10
0
-1.59677e-09
0
-4.0311e-09
0
5.5564e-09
-8.76232e-08
-1.76315e-10
0
0
-8.20501e-10
5.17969e-10
0
3.66963e-10
-1.36843e-09
-2.95738e-10
-4.02643e-09
1.21729e-10
1.78622e-09
-1.73434e-09
-2.95729e-05
-6.29454e-05
1.00161
1.63703
-0.008431
0.325064
2.63458e-05
-7.07472e-05
0.000186158
-4.19025e-05
-0.00276617
1.34194e-05
6.52038e-06
-4.42781e-06
-9.08458e-06
-0.000107081
-3.23355e-05
-2.54256e-05
-0.000116183
-1.62732e-07
2.61897e-07
6.64263e-07
-2.9735e-06
-2.88883e-06
-7.11959e-06
1.2508e-05
0.000112959
-3.50883e-05
8.03571e-05
-0.00685047
-7.42929e-06
-0.0011189
0.00532781
0.0332702
-1.89235e-05
-0.00225915
-1.18944e-06
0.228132
1.02086
-9.30552e-07
-3.57004e-06
-6.65981e-06
1.00384e-06
-1.5818e-06
-2.20186e-05
-6.89068e-06
-8.16917e-07
-1.70687e-06
1.48319e-05
0.456881
1.82845
3.16824
-1.42416e-05
3.80659e-07
-0.000293231
3.03865
-2.23547e-05
-1.69558e-05
-0.000857325
8.03662e-05
-8.49357e-05
-6.85542e-06
0.619459
2.3541
2.66929
-0.00799858
0.398216
0.000469959
-0.00258603
0.000238036
-0.0109259
2.14929e-06
-0.000393903
0.000111465
-0.00100973
-0.000469911
0.0142361
1.36465
-0.00219161
1.49471
1.32079e-06
-3.52221e-05
2.22014
-1.02992e-05
9.41441e-06
-0.000123411
2.07023e-05
-0.000781544
-1.43149e-06
-0.000154252
-0.000198459
1.00258
1.6718
-1.86814e-05
0.113842
-0.000102305
0.000214326
-1.37872e-06
7.41759e-06
1.83057e-07
3.58695e-06
-1.2598e-05
-2.11519e-06
-8.65071e-06
-2.01874e-05
3.81832e-07
-0.000127162
-1.38624e-07
-1.58608e-05
-5.4151e-06
2.29338e-06
-1.79424e-06
-4.112e-07
3.43475e-07
-9.83287e-07
-6.39375e-07
-8.27563e-07
-2.60793e-05
-3.21732e-07
0.641819
-0.00315165
-0.0144955
0.0481437
0.508751
2.40941
2.39389
1.80882
1.59857
-2.94661e-09
1.42903e-09
-3.57534e-08
-1.71598e-07
1.60444e-07
-5.76101e-07
-8.39467e-08
4.32687e-09
4.57238e-09
2.09609e-08
-3.72364e-08
2.10105e-09
-1.27465e-09
1.952e-09
0
8.83478e-09
-2.57233e-09
7.34522e-09
0
0
0
-7.19807e-10
-2.71296e-10
0
0
1.46747e-08
-2.3785e-08
-7.37678e-10
-2.97179e-10
0
0
-7.49858e-09
0
-5.23683e-10
-8.10901e-08
1.41764e-10
5.81462e-08
1.60485e-09
-1.52689e-08
7.0527e-09
6.5556e-09
-2.87147e-08
1.25648e-07
-7.03011e-08
2.03558e-07
-2.81172e-07
2.01288e-09
2.46524e-08
1.60072e-08
0
1.1152e-08
-1.08324e-07
6.5825e-10
-1.47486e-09
4.35943e-09
-3.18917e-07
2.6607e-09
6.4723e-08
-2.56038e-07
-3.93105e-09
-5.95951e-07
-7.72525e-10
2.90241e-09
4.03941e-10
-1.63468e-08
1.76887e-09
1.51146e-08
-8.96795e-09
-1.8347e-07
3.10184e-08
-7.17517e-08
6.81988e-10
1.30135e-09
0
6.10836e-10
-5.19266e-09
0
3.24075e-10
-1.71228e-08
-7.98153e-09
0
9.89926e-10
1.54083e-08
-5.88916e-09
2.52589e-10
-8.87077e-10
0
3.55554e-09
1.92732e-08
0
0
1.64282e-08
-1.75885e-08
-1.92952e-10
-1.79753e-10
-2.01841e-08
-1.80767e-09
0
0
0
9.59675e-10
1.27094e-10
6.19132e-10
-5.57409e-09
2.36384e-09
-2.32664e-09
0
0
6.51097e-10
0
0
-1.67904e-10
0
0
1.84974e-10
0
-8.5886e-08
0
-3.42529e-08
-7.26921e-08
-1.22615e-07
-6.76846e-07
-1.06545e-07
2.77906e-09
1.33895e-08
4.88864e-08
0
1.36852e-09
3.46785e-07
-1.11702e-07
6.11788e-08
-1.85699e-07
2.02943e-06
-2.18867e-06
1.45023e-06
5.76639e-06
-3.11931e-06
-9.62639e-06
4.09701e-07
2.37909e-07
3.31186e-07
-1.22262e-06
0.000472327
0.000267354
0.000102309
0.000779964
1.44548e-05
1.08445e-05
-4.09993e-05
1.12958e-05
-2.07442e-07
-1.70316e-07
-1.00686e-05
0.000517458
2.28746e-05
0.000434343
-0.00231356
-0.00280352
0.011777
-3.75132e-07
0.000283853
1.38933
1.95119
-3.10765e-07
-0.00174921
0.000420195
-1.20766e-06
1.73163e-07
0.051307
0.00279987
0.00143436
0.000832193
-3.30945e-07
-5.81757e-06
-0.000206939
-1.43953e-05
-1.63743e-06
2.25301e-05
3.80248e-07
3.42983e-07
-1.11771e-05
-1.62308e-06
1.20189e-06
-1.55817e-05
0.00102857
0.588126
0.00086913
3.75437e-06
7.84136e-07
-9.70659e-06
-0.0020095
0.000671249
-0.0121808
0.00159501
-1.64569e-06
6.76127e-06
1.5961e-05
-2.29186e-05
8.65123e-06
-1.00656e-06
4.42452e-06
3.78632e-06
5.43718e-07
-3.51384e-09
-0.0061273
0.563723
-1.41857e-07
-1.47712e-07
1.98424e-06
9.03015e-08
2.3485e-06
6.9023e-06
-1.98567e-06
1.21397e-06
-0.00577298
2.61795e-07
1.69611e-07
2.79758e-07
8.80093e-06
-3.42567e-06
6.29373e-06
4.51505e-07
-1.94648e-05
2.4637e-06
-3.31171e-06
-1.01538e-05
3.95903e-05
-0.00845501
2.73721
-0.00162953
-4.67483e-05
0.0015769
-0.00108767
0.00182749
0.00145358
0.00145119
0.000194658
-0.000273556
9.04935e-07
0.000194906
0.000884793
-1.72053e-06
-7.36697e-05
0.000220856
0.00100347
1.60543e-06
-0.000200681
-1.98901e-07
-1.99231e-05
-7.7585e-05
1.49759e-06
-1.96037e-05
-2.5741e-06
-3.36775e-05
-0.0178057
0.185881
-1.94485e-09
-5.08964e-10
2.50204e-09
3.06979e-10
1.50894e-09
-9.14123e-10
-1.37129e-09
-4.17947e-09
4.07668e-09
1.13424e-09
-7.60287e-09
7.15376e-10
3.96681e-10
1.93705e-10
-2.22477e-10
-1.82869e-10
0
-3.18987e-10
-9.18852e-08
6.937e-10
1.33559e-07
0
-4.01794e-08
1.06591e-08
-1.68858e-10
-5.51061e-08
0
-1.63309e-10
0
-7.21359e-09
0
2.17264e-08
2.22475e-09
6.50525e-09
-2.37452e-09
1.1514e-08
7.90182e-09
-3.45851e-07
8.96157e-08
4.05963e-08
-7.14366e-09
6.79937e-08
-6.67232e-09
8.51598e-09
2.11728e-08
9.65923e-08
-1.58209e-08
2.99479e-08
2.09078e-08
-1.67303e-08
8.36472e-09
2.88824e-07
1.61952e-07
2.16826e-07
2.20046e-08
-6.32667e-09
-2.15278e-10
0
0
-2.14021e-09
0
-5.05642e-09
-2.46101e-08
1.52781e-08
5.68556e-09
-9.2312e-08
9.09616e-09
1.19737e-07
-8.97037e-08
1.87564e-08
2.10726e-09
-1.91838e-09
0
1.29119e-09
-7.21145e-08
2.26348e-10
3.21465e-09
-2.30221e-10
-1.11841e-09
-4.39781e-09
-1.86028e-07
1.44578e-10
3.17729e-10
0
4.80464e-10
-2.12177e-09
-1.75865e-10
0
-2.39461e-10
-2.80372e-09
-2.11685e-09
1.46799e-09
-9.18873e-10
2.50393e-10
0
6.36288e-08
-1.46572e-08
0
-3.66636e-08
0
2.06904e-09
3.28489e-07
0
3.65784e-08
-5.00476e-07
-4.71071e-10
6.28525e-09
-4.87349e-07
1.16207e-08
-7.36891e-09
3.61648e-07
1.70647e-07
-2.21296e-07
8.68772e-08
-8.01003e-08
-1.29661e-08
-4.34753e-08
-1.46968e-07
-1.93167e-08
-2.13204e-08
9.83537e-10
1.00614e-08
-1.27528e-08
-1.21475e-08
7.98049e-09
-3.48525e-09
2.23436e-08
9.00989e-08
-0.000758984
0.000149609
-0.000155773
-0.00647546
-0.00360889
-0.00103144
-0.00339478
-0.00108818
-0.00382313
-0.0042908
-0.00157959
-0.000357877
2.35548e-05
0.000404461
-7.58273e-05
0.000723388
-4.38916e-05
-1.70194e-06
0.00393219
0.000569783
0.00167384
0.00249509
0.00248074
0.00176706
-0.00290608
0.00773203
0.00438153
0.00565094
0.00795806
0.00195352
-0.000213722
0.000300332
-0.00702289
7.31499e-05
1.27122e-05
1.90546
1.57783
-7.77952e-06
8.46367e-05
-1.74812e-05
2.93415
2.76916
2.20435
-0.000246766
2.65471
0.0010321
1.18538
1.13195
0.161608
1.94032
2.70218e-05
-2.17971e-05
1.96632
1.84922e-05
0.00113716
-3.19424e-05
5.86772e-06
0.00809961
-0.000197913
-0.0001227
0.272391
2.03685e-05
0.0656656
0.00181776
1.47745
-0.00162354
0.00039358
-0.0040446
0.0055692
0.661185
-1.73578e-06
0.0832224
0.114162
0.0530479
0.00470402
-0.0001411
0.170623
1.57647
-7.96556e-06
-2.09239e-05
-0.000642739
0.000580806
3.40623
0.000286493
0.300422
0.000537015
-0.000245588
-0.00123413
0.00302474
0.0468953
0.101027
-1.26034e-06
0.161802
0.946943
7.23086e-06
1.96115e-05
-3.42045e-05
3.18441
5.55999e-05
2.49235
0.000107831
-0.000230044
4.00215e-05
-0.00576487
-0.00110573
0.000426009
4.0572e-06
0.436984
-0.00193915
0.000389537
3.3352e-06
2.33055
-3.9785e-05
0.730254
-7.20022e-06
-0.000367319
-4.248e-06
0.000855299
1.05634e-06
0.000417467
2.18758e-06
0.0504674
-4.44771e-06
-0.000221467
-0.00305915
-4.04349e-05
-5.49745e-05
0.000192501
-8.71067e-09
-2.45684e-09
2.18094e-09
-3.71254e-10
-2.51833e-08
2.1641e-08
8.98729e-10
-5.71976e-06
-4.36877e-06
-3.11257e-07
-1.14506e-06
-4.72619e-06
-4.26848e-06
-1.39276e-06
-7.81133e-06
-1.11268e-05
-6.84015e-05
2.93113e-05
6.94857e-06
-6.44644e-06
-2.32467e-05
-5.9565e-07
-6.87842e-07
-5.0479e-07
-5.48843e-08
-3.02246e-07
9.19636e-08
-1.66561e-08
-1.25463e-10
-6.98495e-08
-1.93308e-07
6.98549e-08
2.85715e-09
-1.11691e-06
-1.42751e-07
-2.75615e-07
-1.02264e-08
-1.0315e-06
-6.97314e-10
-6.22401e-06
-6.05155e-07
-1.23004e-07
-3.04929e-05
1.92435e-05
2.73487e-09
-1.66992e-06
-3.65714e-06
1.47503e-08
-1.83212e-08
9.96181e-09
-6.78696e-09
-1.4774e-05
-5.02561e-08
-3.21142e-07
-3.02884e-07
-8.94741e-07
-1.0992e-06
-4.02179e-06
-0.000143347
3.85387e-05
-0.000330744
-3.84435e-05
1.39637e-06
-8.61297e-06
-9.27314e-06
-3.30528e-05
0
-1.72737e-05
2.61788e-07
-3.35814e-09
-6.5324e-06
-9.65125e-06
-2.01376e-08
-5.59938e-05
-9.57985e-07
-6.3543e-05
-1.9092e-05
-1.37789e-08
-5.82906e-09
-3.13068e-07
3.13242e-08
-5.46814e-06
-8.94447e-06
2.99361e-08
-0.000122946
-1.04642e-07
-5.44095e-06