# vtk DataFile Version 2.0
Unstructured Grid by M++
ASCII
DATASET UNSTRUCTURED_GRID
POINTS 4225 float
  0.890625   0.781250 0
  0.906250   0.765625 0
  0.968750   0.765625 0
  0.984375   0.781250 0
  0.968750   0.937500 0
  0.937500   0.906250 0
  0.968750   0.906250 0
  0.953125   0.890625 0
  0.953125   0.859375 0
  0.937500   0.875000 0
  0.953125   0.968750 0
  0.937500   0.937500 0
  0.890625   0.859375 0
  0.968750   0.968750 0
  1.000000   0.765625 0
  0.968750   0.953125 0
  0.953125   0.921875 0
  0.906250   0.843750 0
  0.968750   0.984375 0
  0.953125   0.953125 0
  0.906250   0.875000 0
  0.968750   0.859375 0
  0.937500   0.828125 0
  0.968750   0.875000 0
  0.953125   0.843750 0
  0.937500   0.843750 0
  0.953125   0.812500 0
  0.937500   0.953125 0
  0.953125   0.781250 0
  0.953125   1.000000 0
  1.000000   0.828125 0
  1.000000   0.859375 0
  0.906250   0.953125 0
  0.968750   1.000000 0
  1.000000   0.796875 0
  0.937500   0.796875 0
  0.937500   0.765625 0
  0.984375   0.875000 0
  0.890625   0.968750 0
  0.953125   0.984375 0
  0.906250   0.906250 0
  0.937500   0.984375 0
  0.984375   0.812500 0
  0.906250   0.937500 0
  0.984375   0.843750 0
  0.890625   0.937500 0
  0.906250   0.968750 0
  0.937500   1.000000 0
  0.968750   0.796875 0
  0.890625   0.921875 0
  0.968750   0.828125 0
  0.890625   0.953125 0
  0.937500   0.968750 0
  0.890625   0.890625 0
  1.000000   0.937500 0
  0.984375   0.921875 0
  0.890625   1.000000 0
  1.000000   0.906250 0
  1.000000   0.890625 0
  0.906250   0.984375 0
  0.984375   0.890625 0
  1.000000   0.953125 0
  0.984375   0.953125 0
  1.000000   0.968750 0
  0.984375   0.968750 0
  1.000000   1.000000 0
  0.984375   1.000000 0
  0.984375   0.984375 0
  1.000000   0.984375 0
  0.921875   0.812500 0
  0.906250   0.812500 0
  0.906250   0.796875 0
  0.921875   0.781250 0
  0.890625   0.812500 0
  0.890625   0.828125 0
  0.906250   0.828125 0
  0.890625   0.796875 0
  0.890625   0.984375 0
  0.906250   1.000000 0
  0.921875   0.828125 0
  0.921875   0.843750 0
  0.921875   0.859375 0
  0.921875   0.953125 0
  0.921875   0.968750 0
  0.921875   1.000000 0
  0.921875   0.984375 0
  0.921875   0.890625 0
  0.921875   0.921875 0
  1.000000   0.656250 0
  0.984375   0.640625 0
  0.984375   0.671875 0
  1.000000   0.687500 0
  0.906250   0.734375 0
  0.984375   0.609375 0
  1.000000   0.625000 0
  1.000000   0.593750 0
  1.000000   0.609375 0
  0.906250   0.703125 0
  0.984375   0.578125 0
  0.968750   0.734375 0
  1.000000   0.578125 0
  0.906250   0.671875 0
  0.953125   0.750000 0
  0.968750   0.703125 0
  0.968750   0.687500 0
  0.937500   0.656250 0
  0.968750   0.656250 0
  0.953125   0.640625 0
  0.890625   0.750000 0
  0.968750   0.625000 0
  0.937500   0.734375 0
  0.984375   0.562500 0
  0.890625   0.656250 0
  0.937500   0.687500 0
  0.890625   0.609375 0
  0.937500   0.703125 0
  0.984375   0.531250 0
  0.906250   0.656250 0
  0.953125   0.703125 0
  0.906250   0.625000 0
  0.953125   0.671875 0
  0.906250   0.593750 0
  0.937500   0.625000 0
  0.953125   0.531250 0
  0.937500   0.531250 0
  0.953125   0.562500 0
  0.937500   0.562500 0
  0.937500   0.593750 0
  0.953125   0.718750 0
  1.000000   0.546875 0
  0.968750   0.718750 0
  0.953125   0.687500 0
  1.000000   0.515625 0
  0.968750   0.546875 0
  0.890625   0.640625 0
  0.968750   0.515625 0
  0.984375   0.593750 0
  0.890625   0.687500 0
  0.968750   0.562500 0
  0.937500   0.515625 0
  0.937500   0.546875 0
  0.890625   0.718750 0
  0.968750   0.593750 0
  0.968750   0.578125 0
  0.953125   0.546875 0
  0.953125   0.578125 0
  0.953125   0.609375 0
  0.984375   0.703125 0
  1.000000   0.718750 0
  0.984375   0.718750 0
  1.000000   0.750000 0
  0.984375   0.750000 0
  0.984375   0.734375 0
  1.000000   0.734375 0
  0.921875   0.546875 0
  0.906250   0.562500 0
  0.906250   0.531250 0
  0.921875   0.531250 0
  0.921875   0.515625 0
  0.906250   0.515625 0
  0.921875   0.578125 0
  0.921875   0.609375 0
  0.921875   0.687500 0
  0.921875   0.718750 0
  0.921875   0.750000 0
  0.921875   0.640625 0
  0.921875   0.671875 0
  0.890625   0.578125 0
  0.890625   0.546875 0
  0.890625   0.515625 0
  0.828125   0.796875 0
  0.875000   0.843750 0
  0.859375   0.828125 0
  0.781250   0.953125 0
  0.843750   0.843750 0
  0.765625   0.968750 0
  0.859375   0.890625 0
  1.000000   0.921875 0
  0.765625   0.984375 0
  0.859375   0.859375 0
  0.781250   0.984375 0
  0.875000   0.875000 0
  0.875000   0.906250 0
  0.781250   1.000000 0
  0.843750   0.875000 0
  0.765625   1.000000 0
  0.843750   0.906250 0
  0.875000   0.921875 0
  0.859375   0.921875 0
  0.875000   0.984375 0
  0.796875   0.984375 0
  1.000000   0.875000 0
  0.765625   0.937500 0
  0.843750   0.812500 0
  0.875000   0.953125 0
  0.796875   0.953125 0
  0.781250   0.921875 0
  0.859375   0.796875 0
  0.843750   0.921875 0
  0.859375   0.953125 0
  0.812500   0.984375 0
  0.843750   0.781250 0
  1.000000   0.843750 0
  0.765625   0.906250 0
  0.812500   0.953125 0
  0.859375   0.781250 0
  1.000000   0.812500 0
  0.765625   0.875000 0
  0.828125   0.953125 0
  1.000000   0.781250 0
  0.765625   0.843750 0
  0.828125   0.968750 0
  0.843750   1.000000 0
  0.859375   0.765625 0
  0.875000   0.796875 0
  0.781250   0.890625 0
  0.828125   0.937500 0
  0.843750   0.968750 0
  0.875000   0.765625 0
  0.781250   0.859375 0
  0.812500   0.781250 0
  0.781250   0.968750 0
  0.859375   0.968750 0
  0.812500   1.000000 0
  0.828125   0.765625 0
  0.875000   0.812500 0
  0.843750   0.984375 0
  0.875000   0.781250 0
  0.812500   0.968750 0
  0.843750   0.765625 0
  0.875000   0.937500 0
  0.812500   0.812500 0
  0.781250   0.843750 0
  0.875000   0.968750 0
  0.859375   0.937500 0
  0.875000   1.000000 0
  0.859375   1.000000 0
  0.859375   0.984375 0
  0.843750   0.953125 0
  0.765625   0.953125 0
  0.828125   0.984375 0
  0.828125   1.000000 0
  0.812500   0.875000 0
  0.828125   0.890625 0
  0.812500   0.890625 0
  0.828125   0.906250 0
  0.812500   0.921875 0
  0.828125   0.859375 0
  0.812500   0.843750 0
  0.828125   0.828125 0
  0.765625   0.796875 0
  0.781250   0.781250 0
  0.781250   0.812500 0
  1.000000   0.703125 0
  0.765625   0.765625 0
  0.765625   0.828125 0
  0.796875   0.796875 0
  0.796875   0.765625 0
  0.796875   0.875000 0
  0.796875   0.859375 0
  0.796875   0.828125 0
  0.796875   0.906250 0
  0.796875   0.937500 0
  0.796875   0.968750 0
  0.796875   1.000000 0
  0.875000   0.593750 0
  0.781250   0.687500 0
  0.843750   0.593750 0
  0.859375   0.609375 0
  1.000000   0.640625 0
  0.765625   0.703125 0
  0.843750   0.609375 0
  1.000000   0.671875 0
  0.765625   0.734375 0
  0.875000   0.640625 0
  0.875000   0.625000 0
  0.781250   0.718750 0
  0.859375   0.625000 0
  0.781250   0.750000 0
  0.875000   0.671875 0
  0.843750   0.640625 0
  0.843750   0.750000 0
  0.875000   0.734375 0
  0.859375   0.750000 0
  0.859375   0.718750 0
  0.859375   0.687500 0
  0.843750   0.671875 0
  0.875000   0.703125 0
  0.859375   0.656250 0
  1.000000   0.531250 0
  0.765625   0.593750 0
  0.828125   0.734375 0
  0.765625   0.687500 0
  0.781250   0.703125 0
  0.859375   0.578125 0
  0.812500   0.750000 0
  0.796875   0.687500 0
  0.875000   0.562500 0
  0.796875   0.718750 0
  0.843750   0.734375 0
  0.875000   0.531250 0
  0.843750   0.703125 0
  0.812500   0.703125 0
  1.000000   0.562500 0
  0.765625   0.625000 0
  0.781250   0.671875 0
  0.812500   0.718750 0
  0.859375   0.546875 0
  0.859375   0.515625 0
  0.781250   0.640625 0
  0.781250   0.609375 0
  0.796875   0.734375 0
  0.843750   0.562500 0
  0.796875   0.703125 0
  0.812500   0.734375 0
  0.765625   0.656250 0
  0.843750   0.531250 0
  0.828125   0.515625 0
  0.812500   0.531250 0
  0.812500   0.562500 0
  0.828125   0.546875 0
  0.828125   0.687500 0
  0.828125   0.718750 0
  0.828125   0.625000 0
  0.812500   0.640625 0
  0.828125   0.656250 0
  0.812500   0.671875 0
  0.812500   0.609375 0
  0.828125   0.609375 0
  0.812500   0.593750 0
  0.828125   0.593750 0
  0.828125   0.578125 0
  0.812500   0.578125 0
  0.796875   0.625000 0
  0.796875   0.593750 0
  0.796875   0.578125 0
  0.796875   0.562500 0
  0.781250   0.578125 0
  0.781250   0.562500 0
  0.796875   0.656250 0
  0.796875   0.515625 0
  0.781250   0.531250 0
  0.796875   0.546875 0
  0.781250   0.546875 0
  0.828125   0.750000 0
  0.765625   0.515625 0
  0.765625   0.546875 0
  0.937500   0.750000 0
  0.703125   0.812500 0
  0.953125   0.937500 0
  0.718750   1.000000 0
  0.640625   1.000000 0
  0.953125   0.906250 0
  0.718750   0.968750 0
  0.640625   0.968750 0
  0.984375   0.828125 0
  0.750000   0.890625 0
  0.718750   0.921875 0
  0.953125   0.875000 0
  0.718750   0.937500 0
  0.984375   0.859375 0
  0.750000   0.921875 0
  0.734375   0.937500 0
  0.968750   0.843750 0
  0.734375   0.906250 0
  0.687500   0.921875 0
  0.640625   0.843750 0
  0.703125   0.937500 0
  0.656250   0.859375 0
  0.718750   0.953125 0
  0.937500   0.859375 0
  0.703125   0.921875 0
  0.718750   0.984375 0
  0.937500   0.890625 0
  0.703125   0.953125 0
  0.750000   0.781250 0
  0.703125   0.968750 0
  0.921875   0.875000 0
  0.687500   0.937500 0
  0.734375   0.765625 0
  0.656250   0.890625 0
  0.703125   1.000000 0
  0.921875   0.906250 0
  0.687500   0.968750 0
  0.734375   0.796875 0
  0.875000   0.828125 0
  0.640625   0.890625 0
  0.984375   0.796875 0
  0.750000   0.859375 0
  0.656250   1.000000 0
  0.968750   0.812500 0
  0.734375   0.875000 0
  0.890625   0.906250 0
  0.656250   0.968750 0
  0.968750   0.781250 0
  0.734375   0.843750 0
  0.750000   0.843750 0
  0.890625   0.875000 0
  0.656250   0.937500 0
  0.968750   0.750000 0
  0.734375   0.812500 0
  0.640625   0.984375 0
  0.953125   0.796875 0
  0.718750   0.859375 0
  0.875000   0.890625 0
  0.640625   0.953125 0
  0.953125   0.765625 0
  0.718750   0.828125 0
  0.687500   0.781250 0
  0.953125   0.828125 0
  0.718750   0.890625 0
  0.687500   0.953125 0
[...]
CELL_DATA 4096
SCALARS scalar_value float 1
LOOKUP_TABLE default
6.01451e-09
1.25063e-10
0
1.25439
1.31252
2.43271
-0.00389666
0.303215
0.171271
-0.00761399
-0.000367514
0.00371986
3.22835e-09
-5.29423e-09
9.31672e-10
-1.26103e-09
-6.65059e-08
2.09703e-08
-6.17264e-09
5.25784e-09
0
-3.27701e-09
0
-3.81401e-09
4.3505e-09
4.75027e-08
4.1539e-05
3.52532e-05
-7.10347e-06
0.00101522
0.00131613
-1.33466e-07
-2.23315e-06
-0.000165722
-9.52719e-10
-7.01838e-08
-0.000579892
-1.39016e-05
1.77596e-09
-2.15652e-06
0.00107366
0.131856
-8.68283e-05
1.77738e-07
-6.18133e-08
-1.19518e-09
-6.68156e-07
-1.00671e-09
-7.12373e-06
4.30963e-06
1.05496e-07
0.00270293
0.000319642
4.21869e-09
-8.20373e-07
1.89761e-05
-1.93619e-05
9.31704e-10
-2.47793e-07
-0.000156495
-9.50902e-07
0
-1.24706e-08
8.81948e-05
1.10559e-05
2.9594e-07
-2.81577e-07
-3.94883e-08
-6.91726e-06
0.000636263
0.000723987
2.02911e-06
-9.17467e-05
0.000112018
0.00211153
-1.3509e-05
-9.54596e-05
-4.08675e-07
-3.95242e-05
0.0595309
-4.49501e-10
-2.3108e-06
2.15877e-05
2.26323
-0.000532446
-4.26718e-06
2.01663e-06
0
-2.16721e-09
2.33513e-09
-8.79934e-08
5.86481e-08
9.95812e-07
1.46353e-06
3.68122e-05
0.000936271
0.000659249
0.0150356
0.00894221
2.88665e-06
3.35145e-05
1.48745e-05
-0.000322673
1.02063e-10
8.4256e-07
-1.28122e-07
-2.39826e-08
-2.57069e-10
5.39751e-10
2.87349e-09
0
3.06658e-10
0
1.76914e-08
1.45098e-06
-1.29873e-09
-4.52013e-07
1.14219e-07
3.51921e-09
-6.4583e-06
-0.00454193
1.03461
0.0635311
-0.000184233
0.435069
0.72993
0.254412
1.5469
3.76781e-05
-7.38647e-05
-3.2224e-06
-9.45812e-06
-0.000169444
2.88793e-05
1.59813e-05
-0.000427079
-0.0012825
-7.76393e-05
-0.000528692
-0.000997002
-0.00205149
-0.00156732
-0.000600709
2.61115e-06
0.000765181
0.0393597
-2.75015e-05
-7.20075e-05
0.00780101
0.000261935
-0.000437631
0.000562216
-0.00021995
-2.66168e-06
2.7161
2.4445
-0.000144827
2.8165
2.55131
-0.000172719
2.13688
0.00125277
-5.82844e-05
0.0808761
0.0997898
-1.41936e-05
0.719254
-0.000519583
0.000421136
3.09278
0.000319911
-0.000254206
0.00221124
-0.00247731
0.00925472
0.0850524
-0.00274762
-1.5073e-05
2.87582
-0.00229901
2.6804e-06
3.0823
1.51229e-05
-1.7299e-05
0.00191162
0.238284
0.0025346
0.106757
0.0353761
0.0139664
0.174665
0.232048
-0.00226844
3.55658e-05
3.35013
1.9194
-1.8007e-05
-0.001389
-0.00346939
2.01333e-05
3.52347
-0.00113069
-0.00623484
0.203262
0.653657
0.174101
1.39261
0.232121
0.990597
6.17153e-06
0.429911
0.217195
3.11578
-9.15547e-05
-0.000323056
0.00134449
-0.00104603
0.000133307
3.16499
0.00205628
0.00345533
3.55202
-0.000197752
0.000130666
-0.000609629
0.651764
1.29035
0.191517
0.519198
-0.000231647
1.16141
2.16667
1.39292
2.21575
1.22527
1.58248
-3.37519e-06
2.27672
0.321061
1.24483
-0.000193165
1.42978
0.930747
0.749714
1.94378
0.000436758
2.92443
-0.000435105
2.05435
-0.000372898
1.7392
1.78919
-0.000210275
1.11299
-0.000425595
2.30662
-0.00116102
-0.00069615
0.00429758
0.00571875
2.8172
2.70963
3.83346
0.0843446
1.18889
1.24617
0.0772106
0.000362018
0.000414412
-7.31915e-05
3.15281e-06
9.81928e-06
7.4318e-06
-7.6784e-07
-6.69469e-07
1.02389e-09
6.30589e-09
-3.7495e-09
-3.86093e-08
4.03689e-08
1.35764e-08
-1.67343e-09
3.71139e-08
3.09171e-07
2.60423
3.73036
3.71126
3.5516
2.95457
2.48669
0.0565876
3.02136e-05
-0.000989917
-6.28709e-05
-0.000566059
1.06607e-05
0.858658
-5.25658e-07
-5.48327e-05
3.71363
0.018634
0.000920728
0.000357969
-0.000589739
2.56413
1.04938
0.0189749
0.00541322
0.00499674
1.46434e-06
1.34337e-06
0.01497
1.34638e-07
0.000931674
0.0117548
0.000265176
-4.1827e-05
-8.66962e-06
1.21992e-05
-2.84261e-07
-2.18633e-06
-3.54646e-05
2.08238e-06
-0.000235761
-3.13469e-06
0.00924014
3.33171
0.0012616
-0.00183425
-3.27128e-05
-5.35343e-06
8.4793e-07
2.46963e-07
-1.06673e-07
0.00208141
0.674715
-4.707e-05
0.0159953
1.20926
0.00130058
-0.000108802
0.00939053
2.45707
0.0659395
0.00786626
0.0541791
1.4097
0.0493777
-8.22827e-05
0.00300946
0.367652
1.88047
0.149295
0.317661
0.996353
2.28263
3.59223
1.00661e-05
0
4.71247e-08
0.000641195
-5.60709e-07
1.33693e-08
-1.57113e-07
9.94595e-05
2.49638e-06
-1.7446e-05
-1.86691e-06
-0.000133778
7.71144e-07
6.8978e-05
1.96093e-06
-2.94485e-06
-4.69141e-09
-2.43769e-09
4.71014e-05
1.45223e-08
6.53026e-10
2.51883e-10
1.17465e-09
-5.48268e-10
0.00173387
0.000330586
-0.000123191
0.000317511
9.21668e-05
0.000103973
3.68605
4.01886
3.14746
4.04777
4.11185
3.86337
3.74499
3.32086
3.75574
3.9148
3.54871
0.000108814
-0.000845582
-6.70189e-05
-0.00025571
-0.0061981
-0.00144623
-0.00915247
3.87078
3.74827
3.51555
3.3917
4.05604
3.92028
4.11365
4.24937
4.20354
4.48386
4.34151
4.434
4.27405
0.232248
4.599
4.58954
4.62861
1.2022
4.64704
4.64009
-0.000794906
2.86506
4.64001
3.76837
4.23359
0.0175128
-0.000551648
3.54522
4.17697
1.88455
0.123022
3.70501
2.31465
4.32012
4.0005
4.63892
4.62274
4.32145
4.27235
0.738533
4.54264
4.54922
4.50137
-0.00143799
-0.0145703
-0.000527262
0.927332
1.05114
0.00747981
2.31449
3.33042
1.85791
3.0425
4.35498
4.47884
4.58283
1.70404
4.64296
4.55418
4.61742
-0.0135735
4.49209
4.54862
-0.00904287
0.000104506
3.27327
4.37315
-0.00416801
0.716179
0.660724
2.67262
2.95885
4.13956
4.41656
3.34461
-0.000410834
4.64768
4.34174
4.52264
2.7288
4.5268
0.768808
2.1716
3.05834
0.267876
0.584367
-0.00516731
0.0437709
0.0240141
-0.00318958
-0.000143365
-6.62111e-05
-0.00125295
-0.000292875
-0.000122678
-8.79491e-05
3.89893
6.40058e-05
4.3522
0.0892156
2.65868
2.18383
1.83727
1.73414
4.09865
3.18074
4.17036
4.62002
4.64872
4.54979
4.64745
4.64047
4.64486
4.65484
4.65739
4.64755
4.64868
4.67917
4.67292
4.66445
4.67626
3.75191
4.51032
4.2464
4.6431
4.46411
4.62846
4.67982
0.516285
2.92967
2.18299
3.47198
2.41126
3.88848
-0.0378886
2.06115
-0.0315443
2.98639
0.011438
3.74856
4.61619
4.63709
4.6327
4.6514
0.501449
4.64585
1.6062
4.17291
3.12009
1.05823
0.507044
4.52147
1.93103
0.103576
4.64415
2.74565
4.51335
3.17256
4.30956
4.63277
3.83635
3.85736
4.55026
1.66831
4.58682
0.29789
4.62435
4.44722
3.98402
4.15058
4.36578
4.35589
3.73421
1.64065
4.55698
4.62556
3.19206
4.43906
2.48947
3.44655
4.11566
4.47435
1.60754
2.49497
4.62187
2.67873
4.54082
4.1697
3.9548
3.4823
4.6578
2.86026
2.07808
3.18021
4.31929
1.45544
4.56316
2.11322
3.53246
1.20003
3.00388
3.19585
2.58822
2.28939
3.95678
4.59102
4.61949
4.62341
4.6127
4.62597
4.62909
4.50322
4.62991
4.41896
4.64853
4.22206
4.60603
3.61779
4.57626
4.64428
4.62296
-0.0191972
-0.00778357
4.60822
0.702458
0.000390708
1.18342
4.63306
0.0616347
0.283836
4.62044
-0.00116566
0.925223
4.4587
3.42273
-3.51584e-05
-0.000232156
-4.02012e-05
-0.000714943
-8.27989e-05
-7.2734e-05
-0.000166336
-0.00114304
0.0628686
-0.0109386
0.000497983
2.41635
0.00733052
0.131961
4.5408
2.01001
2.80254
1.13024
4.08143
0.466065
4.63511
4.61875
4.16539
4.39926
3.83957
4.60217
4.58223
3.39964
-0.0240507
0.0524293
1.64984
4.62125
4.64586
-0.000209376
-5.75909e-06
-8.22825e-05
9.46122e-06
-0.00158367
-4.22398e-05
7.66435e-06
-0.0707704
-1.10504e-05
4.0988
-0.0416781
-0.000345244
0.274171
-0.00248633
-0.00154544
-0.000455091
4.64289
0.274647
-0.000664107
-0.000203938
0.000533663
0.00213538
4.18737
-0.0153481
3.0218
0.92289
-0.00523616
-1.62118e-05
-0.00822646
-0.00303992
4.64286
-0.0160511
-0.000370932
-0.00322907
4.47562
0.000632045
-0.00118761
-0.0421941
-4.44793e-05
1.39827
-0.017027
-4.03434e-05
-8.85441e-06
6.05706e-05
0.000639964
1.34337
4.40254
-0.00328684
3.45766
-0.003346
0.981777
-0.00234853
-0.000380155
4.16015e-05
-2.8006e-05
3.87673
0.00016176
2.66399
3.37625
0.935258
1.49555
-0.000231515
0.000838038
0.00102818
4.48476e-05
0.0127639
-1.59103e-05
0.000333823
0.090754
0.00211811
2.58403e-05
-0.000291507
-0.0113606
-0.0331096
1.73439
0.723133
1.37205
4.64645
4.64444
4.64359
4.24374
4.64147
4.65189
4.64597
4.53854
-0.0302709
3.92177
-0.000717829
3.415
0.047795
4.62474
-0.00759732
2.34217
-0.00625167
4.43949
4.15265
3.32969
3.89245
3.99023
4.32589
4.44684
2.28212
1.28066
0.698958
1.49715
2.45191
2.96586
3.50292
4.59114
4.40399
4.2267
4.53215
4.60186
4.52834
4.62517
4.63866
-0.0403629
-0.00741239
4.52731
4.59598
4.55746
4.45289
4.126
4.09019
4.29424
2.51534
4.62032
4.52903
3.45877
4.64625
-0.0307603
4.62227
4.58102
4.57973
4.63836
4.64049
4.51461
4.61971
4.64461
4.64535
4.6458
4.6453
4.64613
3.27948
4.64555
3.63889
4.64577
2.08516
4.64504
0.236861
4.64564
4.64547
4.64547
4.64387
4.64529
4.6454
4.64557
0.485237
4.63238
4.6464
3.02737
4.64562
4.64605
0.720429
4.64547
4.6455
1.93549
4.64584
4.27356
4.17414
3.84069
4.64325
4.6455
4.64543
3.27627
3.91533
4.64543
4.11827
4.08534
3.81106
4.64542
3.90839
4.28661
4.41738
4.41338
1.31953
4.51381
4.38665
4.6455
4.64122
4.64408
4.64551
4.64362
4.64567
4.632
4.61747
2.9204
4.41105
2.77356
4.58437
4.36046
4.47226
3.64487
4.64103
0.0342257
4.60041
3.68774
4.54329
1.90277
4.29139
1.25775
4.4623
4.1915
4.05268
4.2971
4.64234
4.64512
4.63431
4.64487
4.64539
4.64569
4.30099
4.42677
-0.00189753
-0.00202975
-0.00033255
0.000181871
-0.00563477
-0.00414916
-0.00615076
-0.0109915
-0.000158441
-6.545e-05
2.70347e-06
0.00023903
4.70197e-05
0.000555168
-0.00285445
-0.00154278
-0.000160873
-0.00194477
-0.0126339
-0.00662572
-0.0134847
-0.00834618
-0.0101106
-0.00670195
0.284392
0.0668895
0.168763
0.72443
-0.0331537
-0.00516231
3.90058
0.000418098
0.000526988
3.99089
-0.00014213
-0.00350592
3.40972
5.01349e-05
0.00018042
1.489
-0.00130692
2.60191
-0.00320533
3.78188
0.00031257
-0.000947
-0.000526652
3.50002
-0.000128562
-2.54711e-05
1.83603
-0.000123492
2.8213
0.0012084
3.67493
-0.000337118
-0.00740483
2.35618
-0.00947085
3.20988
0.00111263
-0.0205348
2.13062
2.11884
3.15879
0.826796
0.82402
0.0176145
0.0975541
-0.00413318
0.891099
1.83605e-05
0.805686
-0.013197
-0.0038923
0.364262
2.77108
1.42948
-0.0247704
0.0824198
0.289942
-1.49805e-06
0.456061
0.128372
-4.58965e-06
0.212256
0.0163208
0.389036
1.30917
-0.000409248
0.000865532
0.00773718
-0.000106473
0.00237295
-0.00182566
6.69396e-05
0.000253509
-0.00122283
1.48279
-0.00139671
-0.00523199
2.08504
-0.00569103
-0.00940926
0.00164809
2.69369
-0.013252
0.00112886
3.04036
-0.00252919
-0.00374653
3.53719
-0.000678446
-0.00512458
3.7303
0.00144406
0.0174831
5.07674e-05
-0.00852861
-7.14702e-05
-0.00369101
-0.00648503
-8.79741e-06
-0.00119985
1.41644e-05
-0.000363324
-0.0257868
-0.0069836
8.18695e-08
-7.79666e-08
3.50702e-07
1.3533e-07
4.31068e-07
-1.39063e-07
1.37974e-09
-1.48761e-07
-1.55708e-08
-2.31363e-08
-1.15417e-09
4.29369e-08
7.99111e-09
5.57554e-07
-1.60604e-08
-6.29967e-07
3.94582e-06
-4.73214e-06
-5.94381e-06
2.82397e-06
-1.21022e-06
7.18783e-07
-2.21605e-08
2.95161e-08
-2.34629e-08
-1.18435e-08
1.46924e-08
-6.92156e-09
-6.35586e-08
2.00126e-08
-7.20849e-09
2.60434e-08
-4.9781e-08
-4.42088e-08
0.000659208
0.00013089
-8.09534e-09
7.18215e-08
-1.61784e-05
-6.00619e-05
-2.69967e-08
8.62997e-09
-8.38305e-09
-0.000197373
-0.000348192
-0.000180047
-0.000227371
-6.03754e-05
-1.09293e-08
-1.63159e-05
6.12633e-09
-0.000128837
-1.31899e-06
4.96986e-09
4.28151e-07
2.57552e-06
7.51533e-07
-1.08147e-06
-2.95504e-07
1.50794e-07
-5.10623e-08
-1.07282e-07
-8.84546e-07
-3.33242e-06
-5.61786e-06
1.57149e-08
4.13231e-07
2.35948e-06
7.33479e-07
3.8422e-07
-3.30203e-06
-1.67364e-08
1.27752e-08
1.4467e-08
1.01645e-08
-1.36904e-07
-4.6126e-08
1.3933e-07
-7.74594e-07
-0.000119055
2.213e-06
-6.65025e-08
-5.40861e-07
-5.16864e-08
-2.01803e-06
-2.57272e-09
-8.56235e-08
-4.88241e-07
2.63486e-08
1.45991e-07
1.03366e-08
2.46312e-09
1.1331e-05
-7.72671e-07
1.44464e-06
4.16695e-07
-9.68784e-06
4.58162e-08
-3.54706e-07
-8.44938e-07
2.67772e-06
-8.41426e-06
-2.83005e-07
-3.05322e-07
-0.000856629
0.00124342
-3.50435e-05
2.54125e-05
2.53861e-06
-4.87531e-06
5.73722e-07
-9.63942e-06
-0.00085472
-3.41702e-07
3.39589e-08
8.33006e-08
2.8036e-09
-4.85561e-08
1.20984e-07
1.00261e-08
-6.949e-08
-7.42984e-07
-4.78317e-07
4.54852e-06
7.03068e-06
2.66297e-05
-2.47574e-06
-0.000114999
0
-2.02036e-09
-1.53409e-09
0
-3.38875e-09
-4.78475e-09
-1.45323e-09
3.50668e-10
4.77836e-10
7.10315e-10
5.001e-10
0
0
0
-2.00112e-09
-1.45235e-09
-2.42534e-10
-6.25659e-10
7.604e-10
-1.45423e-09
3.34305e-09
0
0
0
0
0
0
3.08561e-10
4.47216e-10
1.46103e-10
1.20511e-10
2.5169e-10
1.54236e-10
0
0
0
0
0
0
0
0
0
1.36809e-10
-3.32229e-09
0
0
0
-2.05092e-09
-3.16335e-09
-1.42236e-09
0
0
0
0
0
0
0
0
0
0
0
0
0
0
8.9256e-10
0
0
-6.40157e-10
0
0
-2.12875e-09
0
0
0
-2.84035e-09
-3.46902e-09
-2.4597e-10
0
1.95821e-10
4.75297e-10
0
6.00584e-09
-1.03342e-09
0
0
0
0
0
-2.59138e-10
0
0
-1.41886e-09
0
-5.73068e-10
0
0
4.58545e-09
-7.70997e-10
0
0
0
0
0
0
0
0
1.08968e-10
0
0
0
0
0
0
0
-2.79377e-09
0
0
0
0
0
0
0
1.00479e-10
0
-2.22422e-10
1.04949e-10
0
0
-2.26088e-07
-1.24597e-06
3.63391e-06
1.00754e-05
-1.67248e-05
-1.62812e-05
-1.07316e-06
-2.71927e-07
-6.1546e-06
-2.80031e-06
-8.4382e-06
-3.59958e-07
-4.0688e-07
-1.99939e-07
-4.81332e-08
-3.88012e-07
-5.30861e-07
-5.8674e-07
2.99166e-07
-3.26987e-08
-1.50859e-08
-1.78547e-08
7.26911e-09
-3.55468e-08
-3.08634e-09
-4.19958e-06
-4.33059e-06
-8.26467e-07
-8.66296e-08
3.3163e-06
-6.86303e-08
-1.14431e-05
6.14678e-06
-2.04947e-05
-2.33068e-07
-1.4318e-05
-1.83956e-08
-4.65748e-05
-3.35105e-05
-3.66464e-08
-9.6762e-08
-2.53345e-08
-2.1493e-08
-2.74665e-08
-2.64159e-07
3.55671e-09
-1.7546e-08
-7.01707e-09
-3.08851e-07
-8.29665e-05
-8.46718e-06
3.19924e-05
-1.3529e-07
-3.6048e-08
-3.49089e-06
-1.29066e-05
-1.01552e-07
-4.94739e-08
-6.16102e-06
-1.76342e-05
3.31279e-07
-3.39246e-06
-4.75123e-06
-0.000168454
-0.000136493
3.48142e-06
1.78751e-05
-4.50654e-06
-4.98549e-07
4.30052e-07
-1.46963e-05
1.82429e-08
-7.82038e-06
-1.74677e-06
-5.56202e-06
3.42674e-06
-8.4655e-06
7.14745e-06
-2.45084e-05
-6.50527e-06
-1.31685e-08
-6.37987e-07
-0.000113797
-2.03678e-08
-4.59784e-07
5.70734e-07
-6.92285e-07
-2.02457e-07
-4.78688e-08
-6.49523e-07
2.79094e-07
-8.88739e-05
2.05775e-05
-5.25049e-07
-8.51086e-07
-1.4282e-06
-3.68784e-06
-3.11921e-08
-1.73471e-07
-1.90826e-07
-1.06258e-07
-1.18085e-07
3.30939e-09
-4.57524e-07
-3.31344e-07
-1.67396e-09
-6.8551e-07
-7.73738e-09
-3.52376e-07
-5.1481e-08
-8.15911e-08
-1.0905e-08
-5.88111e-09
-1.15129e-09
-8.77933e-09
4.15336e-09
1.7571e-08
-7.77878e-07
9.09251e-09
-5.51012e-05
2.6462e-06
-6.88422e-06
1.00644e-06
-4.28768e-05
6.85184e-05
-4.303e-05
-0.000225294
-8.60755e-05
0
0
-5.66433e-09
2.07232e-10
9.7574e-10
-7.70199e-09
-1.11309e-09
-1.17812e-09
-1.2873e-09
1.59313e-10
0
0
0
0
0
0
0
0
0
0
0
0
0
0
0
-1.32516e-10
2.11965e-10
0
0
0
0
3.26268e-10
0
0
-6.48385e-09
0
-2.06607e-09
0
0
0
0
1.16681e-10
5.796e-10
-7.70962e-10
5.31138e-10
3.13639e-09
0
1.85986e-10
7.23859e-10
0
1.18536e-10
-1.44048e-09
0
0
-6.03431e-10
-1.19176e-09
0
-2.87167e-10
8.03095e-10
0
0
0
0
0
0
0
-6.89481e-10
0
1.8362e-09
-2.1291e-10
5.19454e-10
0
0
0
0
0
0
0
-2.25877e-10
-1.45473e-10
0
0
-1.07478e-10
1.81341e-10
0
0
0
0
1.34506e-10
0
0
-1.63231e-10
-1.70536e-10
0
0
0
0
0
0
0
0
0
0
0
0
0
0
0
0
0
0
0
0
0
0
0
2.28637e-10
8.59057e-10
0
-1.48627e-09
-1.32182e-08
-4.7326e-09
3.32691e-10
0
-6.28905e-10
5.63049e-10
0
0
2.81081e-10
-5.95977e-10
2.63574e-09
3.31324e-09
-5.46106e-09
-1.90234e-08
-4.31576e-09
-1.80602e-07
4.28485e-08
-1.08033e-07
-1.18124e-08
-1.23696e-08
5.78834e-09
-1.91134e-09
-4.76572e-06
-1.04058e-06
-3.71766e-07
-6.78344e-07
-2.38796e-07
-5.13881e-09
-1.73057e-07
-2.09157e-07
-7.51723e-09
-1.07396e-08
-1.62677e-06
-2.05822e-06
-6.10392e-06
-1.05553e-05
-9.64671e-06
-1.33083e-05
-1.60099e-05
8.61784e-10
4.3944e-07
1.65062e-05
-0.000171531
2.85776e-10
-6.1665e-06
1.8669e-06
-5.54981e-09
3.13411e-09
-1.24396e-05
-1.18006e-06
-7.31518e-06
1.79397e-07
6.86452e-09
-7.40592e-09
-3.58907e-06
-3.72043e-08
-5.09596e-08
-3.30475e-07
8.04691e-08
3.17486e-09
1.30099e-08
8.4085e-09
-1.32741e-09
-1.87777e-07
-1.71659e-06
-7.04818e-05
-6.42902e-06
-1.92166e-09
2.89574e-09
-3.81902e-07
3.27421e-07
-8.74869e-06
-1.5508e-05
-1.36201e-06
7.23605e-09
-4.40176e-06
2.93489e-06
-3.2644e-07
-3.41304e-09
5.62545e-08
-1.46925e-07
2.1384e-08
2.19113e-08
-5.76599e-09
-2.34291e-06
-8.3123e-05
6.48074e-09
3.64053e-08
7.05585e-09
-9.08366e-09
-1.05314e-07
-5.86901e-08
2.09335e-08
-1.00645e-07
-1.09258e-05
-4.86362e-08
-3.21091e-08
-5.77985e-09
7.68174e-08
4.21456e-08
-1.06423e-08
-2.97214e-08
1.27899e-07
2.29463e-08
1.54028e-08
-4.40414e-08
4.65941e-07
3.49295e-08
-0.000160644
-6.60155e-06
-1.36729e-06
-9.22733e-08
-1.22952e-06
-3.40438e-06
-1.10392e-06
-5.24289e-07
-5.46432e-08
2.41384e-06
-4.70006e-08
-1.24603e-06
-3.82167e-07
-5.05362e-08
2.67592e-07
-2.53512e-07
2.6972e-06
-6.39422e-08
-5.83364e-07
7.90733e-09
-5.59835e-08
3.69371e-07
-5.79053e-08
1.35608e-08
6.38702e-09
4.5628e-07
-4.86368e-05
-6.43765e-05
0
0
0
0
0
0
0
0
0
0
0
0
0
0
0
0
0
0
1.29175e-09
0
-2.06013e-09
0
2.82498e-10
-2.08252e-10
0
-4.58715e-10
0
1.17246e-10
0
0
0
0
0
0
1.6432e-09
-2.48067e-09
1.9976e-10
1.95403e-09
0
-2.24934e-09
-2.07125e-10
-5.16852e-10
0
0
1.90574e-10
-3.75048e-09
2.30607e-10
1.10695e-10
0
0
0
-1.59139e-09
4.28535e-10
1.04782e-10
0
0
0
0
0
0
0
0
1.16506e-10
0
0
4.20834e-10
0
2.85436e-10
0
1.44603e-09
1.1888e-10
0
0
0
2.45198e-09
0
0
0
0
0
1.36161e-09
0
0
0
0
1.52084e-10
0
0
0
0
-1.20678e-08
0
0
0
0
1.3474e-09
-3.47736e-10
0
3.90233e-09
0
0
-2.37557e-09
0
-3.21404e-10
5.23112e-09
0
0
2.04888e-08
0
0
5.29772e-10
9.11565e-10
-2.52335e-10
1.56054e-10
-1.61858e-10
-4.11508e-10
-1.53957e-09
-6.33276e-10
-1.00426e-10
-1.05394e-10
0
3.84984e-10
-2.85612e-10
0
0
2.84194e-10
1.20674e-10
-2.51231e-09
-3.51278e-05
-5.08291e-06
-2.32608e-07
-1.67068e-06
1.81324e-06
1.59979e-07
3.67748e-06
-2.85143e-06
-3.16871e-06
3.0183e-06
-2.31804e-06
-5.93319e-07
-7.86263e-05
-1.65013e-05
-3.52147e-07
3.18073e-06
-2.56343e-05
-3.87156e-05
-1.08339e-05
-1.16173e-06
-1.83043e-06
9.42638e-06
-2.01809e-06
2.70391e-06
7.5481e-06
3.39255e-05
8.04279e-06
-1.1886e-06
4.89914e-05
-3.11453e-05
-2.00658e-05
-6.69147e-06
-3.16655e-06
-7.67141e-07
-3.1591e-08
-0.000582658
-0.000169304
-7.57417e-07
-5.1019e-06
-7.32661e-08
-0.000855068
-0.000371843
0.000340991
-3.5206e-07
0.00115659
7.00061e-08
0.00026979
-0.000440636
7.19546e-05
-0.000767464
4.89833e-07
3.8644e-07
0.00051596
8.22336e-07
-2.26326e-05
-4.16038e-05
5.27347e-08
4.16556e-05
-0.000117897
4.95728e-07
7.8216e-05
7.17796e-08
-7.34197e-05
-2.08867e-06
9.68982e-05
1.38764e-05
-1.61055e-07
-0.000109436
-5.64834e-05
0.000162691
-1.05641e-06
-0.000168909
2.37684e-05
-2.17407e-05
-4.74388e-05
-9.26445e-07
-8.57012e-05
-0.000156012
1.78407e-07
-3.71213e-07
9.82591e-06
-2.10123e-06
0.000637032
2.65194e-07
-0.000216034
-4.00148e-05
-1.84052e-06
-1.47482e-05
-8.1597e-06
-3.72477e-05
-3.41176e-05
-3.26004e-08
-7.88169e-05
0.000262242
2.33543e-07
-1.86966e-05
-4.47822e-07
-0.000869906
5.7071e-08
0.000828584
-1.15357e-05
-0.000101505
5.76481e-09
-5.65752e-05
-4.61683e-05
-3.89414e-05
1.12758e-06
-0.00027569
-1.61924e-05
-6.3249e-05
-1.47756e-07
0.000538708
-1.47044e-07
-0.000145423
7.23179e-08
-1.75637e-05
-1.33172e-07
2.9546e-06
-1.16907e-07
-1.65774e-05
-3.52065e-08
-6.51642e-06
2.37436e-08
6.4597e-07
2.44479e-05
-2.83093e-08
-1.19634e-05
-7.59042e-06
4.15484e-10
0
-1.978e-10
3.59405e-10
4.35784e-10
4.69172e-10
-2.21986e-09
7.71097e-08
1.63431e-08
-4.1581e-08
-5.05633e-08
-2.31259e-07
7.55862e-08
-8.3838e-09
-2.76239e-07
-7.16096e-07
3.17112e-08
-1.99909e-06
-1.10019e-06
-4.94266e-07
3.13496e-07
1.77944e-08
7.02338e-09
7.40983e-09
4.78509e-09
2.94402e-09
-2.46475e-09
-2.42142e-09
0
5.05508e-09
1.68492e-09
-3.02318e-09
-1.17948e-09
1.04228e-08
4.09291e-09
5.32107e-09
2.07681e-09
4.44433e-09
0
-2.24536e-07
-1.77831e-08
5.44047e-10
-2.55466e-07
-7.9081e-06
0
5.12487e-08
-3.16505e-08
2.18756e-09
3.30137e-09
3.41319e-10
6.72327e-10
-4.24783e-06
-6.08216e-09
-1.69032e-09
9.77131e-09
-1.41625e-08
-5.94232e-08
5.65042e-08
-8.86591e-06
-3.02055e-06
-1.62265e-05
-2.95218e-06
-1.37118e-06
7.92794e-08
-2.71377e-07
-1.28754e-06
1.15653e-10
-3.19325e-07
-3.0102e-06
1.55598e-10
-2.98906e-06
-2.70146e-07
2.29022e-10
-1.05015e-05
-4.38432e-08
3.92967e-07
2.87701e-07
-2.57272e-09
5.85191e-10
2.36763e-09
1.01484e-08
6.88146e-08
-1.99134e-07
-6.54277e-10
-1.06812e-05
1.49169e-09
-8.68971e-08
-8.93253e-10
-2.03032e-05
1.26146e-09
-2.10497e-09
8.89003e-09
-2.93251e-09
3.89174e-10