# vtk DataFile Version 2.0
Unstructured Grid by M++
ASCII
DATASET UNSTRUCTURED_GRID
POINTS 4225 float
  0.890625   0.781250 0
  0.906250   0.765625 0
  0.968750   0.765625 0
  0.984375   0.781250 0
  0.968750   0.937500 0
  0.937500   0.906250 0
  0.968750   0.906250 0
  0.953125   0.890625 0
  0.953125   0.859375 0
  0.937500   0.875000 0
  0.953125   0.968750 0
  0.937500   0.937500 0
  0.890625   0.859375 0
  0.968750   0.968750 0
  1.000000   0.765625 0
  0.968750   0.953125 0
  0.953125   0.921875 0
  0.906250   0.843750 0
  0.968750   0.984375 0
  0.953125   0.953125 0
  0.906250   0.875000 0
  0.968750   0.859375 0
  0.937500   0.828125 0
  0.968750   0.875000 0
  0.953125   0.843750 0
  0.937500   0.843750 0
  0.953125   0.812500 0
  0.937500   0.953125 0
  0.953125   0.781250 0
  0.953125   1.000000 0
  1.000000   0.828125 0
  1.000000   0.859375 0
  0.906250   0.953125 0
  0.968750   1.000000 0
  1.000000   0.796875 0
  0.937500   0.796875 0
  0.937500   0.765625 0
  0.984375   0.875000 0
  0.890625   0.968750 0
  0.953125   0.984375 0
  0.906250   0.906250 0
  0.937500   0.984375 0
  0.984375   0.812500 0
  0.906250   0.937500 0
  0.984375   0.843750 0
  0.890625   0.937500 0
  0.906250   0.968750 0
  0.937500   1.000000 0
  0.968750   0.796875 0
  0.890625   0.921875 0
  0.968750   0.828125 0
  0.890625   0.953125 0
  0.937500   0.968750 0
  0.890625   0.890625 0
  1.000000   0.937500 0
  0.984375   0.921875 0
  0.890625   1.000000 0
  1.000000   0.906250 0
  1.000000   0.890625 0
  0.906250   0.984375 0
  0.984375   0.890625 0
  1.000000   0.953125 0
  0.984375   0.953125 0
  1.000000   0.968750 0
  0.984375   0.968750 0
  1.000000   1.000000 0
  0.984375   1.000000 0
  0.984375   0.984375 0
  1.000000   0.984375 0
  0.921875   0.812500 0
  0.906250   0.812500 0
  0.906250   0.796875 0
  0.921875   0.781250 0
  0.890625   0.812500 0
  0.890625   0.828125 0
  0.906250   0.828125 0
  0.890625   0.796875 0
  0.890625   0.984375 0
  0.906250   1.000000 0
  0.921875   0.828125 0
  0.921875   0.843750 0
  0.921875   0.859375 0
  0.921875   0.953125 0
  0.921875   0.968750 0
  0.921875   1.000000 0
  0.921875   0.984375 0
  0.921875   0.890625 0
  0.921875   0.921875 0
  1.000000   0.656250 0
  0.984375   0.640625 0
  0.984375   0.671875 0
  1.000000   0.687500 0
  0.906250   0.734375 0
  0.984375   0.609375 0
  1.000000   0.625000 0
  1.000000   0.593750 0
  1.000000   0.609375 0
  0.906250   0.703125 0
  0.984375   0.578125 0
  0.968750   0.734375 0
  1.000000   0.578125 0
  0.906250   0.671875 0
  0.953125   0.750000 0
  0.968750   0.703125 0
  0.968750   0.687500 0
  0.937500   0.656250 0
  0.968750   0.656250 0
  0.953125   0.640625 0
  0.890625   0.750000 0
  0.968750   0.625000 0
  0.937500   0.734375 0
  0.984375   0.562500 0
  0.890625   0.656250 0
  0.937500   0.687500 0
  0.890625   0.609375 0
  0.937500   0.703125 0
  0.984375   0.531250 0
  0.906250   0.656250 0
  0.953125   0.703125 0
  0.906250   0.625000 0
  0.953125   0.671875 0
  0.906250   0.593750 0
  0.937500   0.625000 0
  0.953125   0.531250 0
  0.937500   0.531250 0
  0.953125   0.562500 0
  0.937500   0.562500 0
  0.937500   0.593750 0
  0.953125   0.718750 0
  1.000000   0.546875 0
  0.968750   0.718750 0
  0.953125   0.687500 0
  1.000000   0.515625 0
  0.968750   0.546875 0
  0.890625   0.640625 0
  0.968750   0.515625 0
  0.984375   0.593750 0
  0.890625   0.687500 0
  0.968750   0.562500 0
  0.937500   0.515625 0
  0.937500   0.546875 0
  0.890625   0.718750 0
  0.968750   0.593750 0
  0.968750   0.578125 0
  0.953125   0.546875 0
  0.953125   0.578125 0
  0.953125   0.609375 0
  0.984375   0.703125 0
  1.000000   0.718750 0
  0.984375   0.718750 0
  1.000000   0.750000 0
  0.984375   0.750000 0
  0.984375   0.734375 0
  1.000000   0.734375 0
  0.921875   0.546875 0
  0.906250   0.562500 0
  0.906250   0.531250 0
  0.921875   0.531250 0
  0.921875   0.515625 0
  0.906250   0.515625 0
  0.921875   0.578125 0
  0.921875   0.609375 0
  0.921875   0.687500 0
  0.921875   0.718750 0
  0.921875   0.750000 0
  0.921875   0.640625 0
  0.921875   0.671875 0
  0.890625   0.578125 0
  0.890625   0.546875 0
  0.890625   0.515625 0
  0.828125   0.796875 0
  0.875000   0.843750 0
  0.859375   0.828125 0
  0.781250   0.953125 0
  0.843750   0.843750 0
  0.765625   0.968750 0
  0.859375   0.890625 0
  1.000000   0.921875 0
  0.765625   0.984375 0
  0.859375   0.859375 0
  0.781250   0.984375 0
  0.875000   0.875000 0
  0.875000   0.906250 0
  0.781250   1.000000 0
  0.843750   0.875000 0
  0.765625   1.000000 0
  0.843750   0.906250 0
  0.875000   0.921875 0
  0.859375   0.921875 0
  0.875000   0.984375 0
  0.796875   0.984375 0
  1.000000   0.875000 0
  0.765625   0.937500 0
  0.843750   0.812500 0
  0.875000   0.953125 0
  0.796875   0.953125 0
  0.781250   0.921875 0
  0.859375   0.796875 0
  0.843750   0.921875 0
  0.859375   0.953125 0
  0.812500   0.984375 0
  0.843750   0.781250 0
  1.000000   0.843750 0
  0.765625   0.906250 0
  0.812500   0.953125 0
  0.859375   0.781250 0
  1.000000   0.812500 0
  0.765625   0.875000 0
  0.828125   0.953125 0
  1.000000   0.781250 0
  0.765625   0.843750 0
  0.828125   0.968750 0
  0.843750   1.000000 0
  0.859375   0.765625 0
  0.875000   0.796875 0
  0.781250   0.890625 0
  0.828125   0.937500 0
  0.843750   0.968750 0
  0.875000   0.765625 0
  0.781250   0.859375 0
  0.812500   0.781250 0
  0.781250   0.968750 0
  0.859375   0.968750 0
  0.812500   1.000000 0
  0.828125   0.765625 0
  0.875000   0.812500 0
  0.843750   0.984375 0
  0.875000   0.781250 0
  0.812500   0.968750 0
  0.843750   0.765625 0
  0.875000   0.937500 0
  0.812500   0.812500 0
  0.781250   0.843750 0
  0.875000   0.968750 0
  0.859375   0.937500 0
  0.875000   1.000000 0
  0.859375   1.000000 0
  0.859375   0.984375 0
  0.843750   0.953125 0
  0.765625   0.953125 0
  0.828125   0.984375 0
  0.828125   1.000000 0
  0.812500   0.875000 0
  0.828125   0.890625 0
  0.812500   0.890625 0
  0.828125   0.906250 0
  0.812500   0.921875 0
  0.828125   0.859375 0
  0.812500   0.843750 0
  0.828125   0.828125 0
  0.765625   0.796875 0
  0.781250   0.781250 0
  0.781250   0.812500 0
  1.000000   0.703125 0
  0.765625   0.765625 0
  0.765625   0.828125 0
  0.796875   0.796875 0
  0.796875   0.765625 0
  0.796875   0.875000 0
  0.796875   0.859375 0
  0.796875   0.828125 0
  0.796875   0.906250 0
  0.796875   0.937500 0
  0.796875   0.968750 0
  0.796875   1.000000 0
  0.875000   0.593750 0
  0.781250   0.687500 0
  0.843750   0.593750 0
  0.859375   0.609375 0
  1.000000   0.640625 0
  0.765625   0.703125 0
  0.843750   0.609375 0
  1.000000   0.671875 0
  0.765625   0.734375 0
  0.875000   0.640625 0
  0.875000   0.625000 0
  0.781250   0.718750 0
  0.859375   0.625000 0
  0.781250   0.750000 0
  0.875000   0.671875 0
  0.843750   0.640625 0
  0.843750   0.750000 0
  0.875000   0.734375 0
  0.859375   0.750000 0
  0.859375   0.718750 0
  0.859375   0.687500 0
  0.843750   0.671875 0
  0.875000   0.703125 0
  0.859375   0.656250 0
  1.000000   0.531250 0
  0.765625   0.593750 0
  0.828125   0.734375 0
  0.765625   0.687500 0
  0.781250   0.703125 0
  0.859375   0.578125 0
  0.812500   0.750000 0
  0.796875   0.687500 0
  0.875000   0.562500 0
  0.796875   0.718750 0
  0.843750   0.734375 0
  0.875000   0.531250 0
  0.843750   0.703125 0
  0.812500   0.703125 0
  1.000000   0.562500 0
  0.765625   0.625000 0
  0.781250   0.671875 0
  0.812500   0.718750 0
  0.859375   0.546875 0
  0.859375   0.515625 0
  0.781250   0.640625 0
  0.781250   0.609375 0
  0.796875   0.734375 0
  0.843750   0.562500 0
  0.796875   0.703125 0
  0.812500   0.734375 0
  0.765625   0.656250 0
  0.843750   0.531250 0
  0.828125   0.515625 0
  0.812500   0.531250 0
  0.812500   0.562500 0
  0.828125   0.546875 0
  0.828125   0.687500 0
  0.828125   0.718750 0
  0.828125   0.625000 0
  0.812500   0.640625 0
  0.828125   0.656250 0
  0.812500   0.671875 0
  0.812500   0.609375 0
  0.828125   0.609375 0
  0.812500   0.593750 0
  0.828125   0.593750 0
  0.828125   0.578125 0
  0.812500   0.578125 0
  0.796875   0.625000 0
  0.796875   0.593750 0
  0.796875   0.578125 0
  0.796875   0.562500 0
  0.781250   0.578125 0
  0.781250   0.562500 0
  0.796875   0.656250 0
  0.796875   0.515625 0
  0.781250   0.531250 0
  0.796875   0.546875 0
  0.781250   0.546875 0
  0.828125   0.750000 0
  0.765625   0.515625 0
  0.765625   0.546875 0
  0.937500   0.750000 0
  0.703125   0.812500 0
  0.953125   0.937500 0
  0.718750   1.000000 0
  0.640625   1.000000 0
  0.953125   0.906250 0
  0.718750   0.968750 0
  0.640625   0.968750 0
  0.984375   0.828125 0
  0.750000   0.890625 0
  0.718750   0.921875 0
  0.953125   0.875000 0
  0.718750   0.937500 0
  0.984375   0.859375 0
  0.750000   0.921875 0
  0.734375   0.937500 0
  0.968750   0.843750 0
  0.734375   0.906250 0
  0.687500   0.921875 0
  0.640625   0.843750 0
  0.703125   0.937500 0
  0.656250   0.859375 0
  0.718750   0.953125 0
  0.937500   0.859375 0
  0.703125   0.921875 0
  0.718750   0.984375 0
  0.937500   0.890625 0
  0.703125   0.953125 0
  0.750000   0.781250 0
  0.703125   0.968750 0
  0.921875   0.875000 0
  0.687500   0.937500 0
  0.734375   0.765625 0
  0.656250   0.890625 0
  0.703125   1.000000 0
  0.921875   0.906250 0
  0.687500   0.968750 0
  0.734375   0.796875 0
  0.875000   0.828125 0
  0.640625   0.890625 0
  0.984375   0.796875 0
  0.750000   0.859375 0
  0.656250   1.000000 0
  0.968750   0.812500 0
  0.734375   0.875000 0
  0.890625   0.906250 0
  0.656250   0.968750 0
  0.968750   0.781250 0
  0.734375   0.843750 0
  0.750000   0.843750 0
  0.890625   0.875000 0
  0.656250   0.937500 0
  0.968750   0.750000 0
  0.734375   0.812500 0
  0.640625   0.984375 0
  0.953125   0.796875 0
  0.718750   0.859375 0
  0.875000   0.890625 0
  0.640625   0.953125 0
  0.953125   0.765625 0
  0.718750   0.828125 0
  0.687500   0.781250 0
  0.953125   0.828125 0
  0.718750   0.890625 0
  0.687500   0.953125 0
[...]
CELL_DATA 4096
SCALARS scalar_value float 1
LOOKUP_TABLE default
0.000125878
-3.11337e-06
1.79317e-06
3.78785
3.43999
3.61394
3.34761
3.55514
3.77271
3.40649
1.65264
2.76869
-1.71848e-05
5.88604e-05
-1.40168e-05
5.10042e-06
0.00116567
-0.000210441
5.85661e-05
-8.59998e-05
3.38981e-06
-7.95973e-06
-8.2439e-07
-1.01622e-05
4.88474e-05
-9.26233e-05
1.28209
1.32032
0.75518
2.91515
2.55656
0.000330807
-6.48233e-05
-0.000508436
-1.25004e-05
9.53205e-05
1.81017
0.000347154
-0.000137022
8.13569e-06
0.134572
0.811817
0.0671364
0.00164367
0.000845443
-2.15348e-05
-0.000998729
-2.89446e-05
0.00450241
-0.00896633
0.000402823
2.69229
0.0999175
3.14179e-05
0.000716048
0.521571
0.0191218
3.14922e-06
0.00102786
1.99851
4.8824e-05
0.000407728
-0.000116227
0.631308
-5.21517e-05
0.000854972
0.00224225
-0.00534311
0.233373
0.129401
0.10953
-0.00143406
-0.000763185
0.0581541
1.1452
-0.00366073
0.856959
0.000319455
-0.000300394
0.992464
4.13168e-05
-0.00353367
-0.000219101
3.20847
0.00128382
0.0331052
0.000914071
-7.14759e-07
0.000154318
-3.24809e-05
0.0050438
0.00192108
0.302424
0.0446074
0.551211
2.0398
1.06107
2.19415
1.11693
-0.000153661
-0.000178798
0.00944557
0.000483198
5.96921e-05
-0.00292111
0.000837884
7.41517e-05
1.28384e-06
2.32727e-05
-3.75914e-05
-1.46171e-06
-1.95826e-06
-4.27832e-06
0.000156875
0.226001
0.000110413
0.0286074
0.0654361
0.000148414
0.680409
2.19996
2.87752
3.0612
1.7298
3.03116
1.75134
2.0181
2.66719
-0.000100982
6.35683e-06
-2.13569e-05
-2.52039e-05
-7.16991e-05
-0.000312275
-2.32176e-05
0.000900535
-0.00071362
-0.000162281
-0.00126537
-0.000978655
0.000237795
-0.000873977
0.000987059
-2.61599e-05
-7.07884e-05
-0.00269075
0.00020878
-0.000321711
-0.00198534
1.02977e-05
-4.68376e-05
-7.50543e-06
-1.12181e-05
5.96749e-05
1.74427
1.30521
-0.000203756
0.685991
0.188311
-7.55957e-05
0.689077
-3.78238e-05
4.33708e-05
5.69249e-05
-7.6471e-05
-0.000137096
-0.000223338
0.00124311
1.93738e-05
1.50245
-0.000859876
-0.000203597
-8.55679e-05
-1.81074e-05
0.000223109
0.00062321
-4.37183e-07
-6.27322e-06
2.93661
1.98074e-06
-2.92649e-05
2.36952
1.21434e-05
6.88831e-05
0.00767818
0.0992595
-0.00213076
0.00532676
0.00122518
3.83846e-05
0.000803271
-0.00340409
-1.89438e-06
-7.04506e-05
2.28038
2.43097
3.57391e-05
-1.01215e-06
3.357e-06
-4.16723e-05
3.14352
0.000217367
-1.37796e-05
0.40027
0.00140616
0.604584
0.851394
0.223832
0.326779
5.35065e-05
-0.00581768
-5.20479e-05
2.65028
0.000671609
-0.000124565
-4.39512e-05
-3.15256e-07
0.0300359
3.40287
-3.87839e-07
-0.00131532
2.80785
-2.08146e-05
-9.09714e-06
0.000543085
-0.000161919
0.000117227
0.0323261
0.0513076
-0.000402577
1.4597
2.16188
1.15657
1.46488
0.568996
0.574384
5.41183e-05
1.8365
0.00923805
0.129271
-1.16089e-05
-0.00814278
-0.00413208
0.148055
1.06476
-0.000308031
2.08804
-8.21142e-06
-2.04378e-05
2.4881e-06
0.00093271
0.131948
4.84334e-06
-0.00264123
-0.000140918
0.0251297
2.60952
2.76255
3.80416
3.74511
4.48451
4.36687
4.39323
4.31022
4.43568
4.53162
4.34101
1.15629
0.928553
0.0171203
-0.0019397
0.00540735
0.010282
0.000263239
0.000564574
-0.000106271
-3.3774e-07
3.42389e-06
2.44851e-06
2.12626e-06
1.67878e-06
-1.1985e-05
3.97879e-05
1.80453e-05
4.64513
4.63347
4.25798
4.64563
4.64276
4.23542
4.15229
1.24333
2.54733
0.0254596
0.0370788
0.000683521
4.58457
0.204415
-0.000259203
4.52074
3.72841
0.0640165
0.96521
0.210166
4.5887
4.31186
2.21072
3.62229
1.17398
8.22913e-05
-7.59614e-05
1.67219
-0.000115108
0.628544
3.97217
0.762221
2.55498
0.00781946
-0.000269774
2.25026e-05
2.32562e-05
0.00489666
3.67517e-05
0.424628
0.000698275
3.54762
4.1056
3.44771
2.3096
0.0241223
0.00162774
0.000219347
1.27604e-05
5.72082e-05
3.38208
4.5795
1.44368
3.92747
4.07395
2.16831
0.0289853
4.28442
4.63506
4.32613
3.20457
4.3627
4.64739
3.93525
0.061023
2.86123
4.57622
4.64352
4.3742
4.00534
4.60572
3.97608
4.59904
0.000422407
7.93162e-05
-0.000154515
-0.0388821
0.000526455
-9.94207e-06
-0.000385812
0.919543
0.00838588
-0.00368049
-0.000451919
0.0330484
0.00337525
0.0398403
-0.00143407
0.000161827
-2.65647e-07
-8.72301e-06
0.000922168
4.0166e-05
9.1739e-07
-3.71169e-07
-9.51706e-08
1.52187e-06
3.25862
-0.00825264
2.47544
-4.90706e-06
-1.10995e-05
3.70033e-06
3.58761
3.79812
3.81453
3.22616
3.57875
3.27877
2.77079
0.753432
1.57343
2.59488
1.89961
-6.32517e-06
-2.15149e-05
2.90599e-06
-6.01319e-06
-6.33407e-05
-1.64388e-05
-2.22352e-05
-0.0119914
0.125939
-0.00287323
-0.0027024
1.6318
0.633454
0.260825
1.49783
4.10789
4.08804
4.2725
3.64654
3.42894
-8.05693e-05
1.83374
3.42809
3.14308
-0.000319361
3.3386
4.43475
-2.99343e-05
-0.00127666
4.51609
3.96578
4.60813
1.73922e-06
-3.16233e-05
0.395871
4.64001
-0.000133976
2.5275e-05
-0.00134959
-0.000527036
0.416225
-0.00154957
2.07434
4.14323
4.43062
4.53894
-2.15107e-05
2.24044
3.92077
-0.0091804
1.07695e-05
-4.37055e-05
-1.08321e-05
-4.91893e-05
-5.87302e-05
6.41671e-07
-0.00150335
0.000220732
-0.000349513
0.0430055
-0.00858917
0.73032
4.448
-3.71784e-05
4.00136
4.29524
0.588245
2.99716e-05
3.11641
0.449398
5.4981e-06
-3.25565e-05
-0.011887
-0.0126911
1.85628e-05
-0.000171922
-0.000237083
0.000379361
0.000653379
-0.0201578
1.81129
-0.000241055
-1.277e-05
4.12325
3.88384
4.62183
-0.00678494
4.56861
-3.06999e-05
0.000218979
0.000146744
-0.00017001
-0.000134673
-9.35645e-05
-3.10668e-05
2.35707e-05
6.42092e-06
2.7181e-06
-6.12985e-06
-4.26617e-05
-2.52375e-05
2.03377e-06
1.89435e-06
-0.00142454
-9.51006e-06
2.79924
-1.81785e-05
-0.000176665
-0.000807674
-0.000265116
-0.000185258
-0.00206374
-0.00249276
2.66279
-0.0478411
1.9099
-0.123398
2.16879
0.354946
1.08908
2.85457
3.7277
3.25293
2.00543
4.3959
4.1165
3.50428
3.96122
4.63062
4.57415
4.60547
4.47136
4.61488
4.55621
4.27124
4.6215
4.64327
4.67183
4.62165
4.62345
4.61184
3.78048
4.64655
3.23353
4.65457
4.23932
4.61377
-0.0587283
2.50352
2.91823
1.84024
-0.004273
2.71605
-0.00912645
4.5875
-0.0197088
-0.00785281
-0.00059103
4.61629
-0.000556405
-0.000742676
2.03652
4.63016
-0.00387746
4.63508
-0.0528903
0.265661
4.64533
-0.0668876
-0.0489141
4.67015
0.190088
4.53465
0.690973
-0.0875648
4.59352
0.0196799
-0.060105
4.60089
-0.00243935
4.60821
0.0648963
4.58786
-0.0137585
-0.0412495
-0.0104008
4.64381
-0.0605853
-0.0857984
-0.0204544
4.65686
-0.0150407
-0.00189798
0.460938
4.62754
0.00961517
-0.011159
4.45817
-0.0126649
-0.00915195
4.62752
0.0186487
4.62029
-0.0792023
-0.0118514
-0.0499299
-0.000811705
4.6257
-0.00420116
-0.00293566
4.65079
0.0089603
3.91186
2.0767
3.07474
3.60664
3.27701
0.856129
0.114358
1.1072
0.0363819
1.57916
0.043442
0.947645
-0.0134462
0.741998
1.27194
1.49387
2.47943
1.5781
0.386954
4.45057
0.340545
4.54033
1.14742
4.08838
4.31652
2.59875
0.80362
4.64725
-0.021032
4.63882
-3.28514e-06
-8.69817e-06
-2.86582e-06
-2.5237e-05
-2.67933e-05
-6.9514e-06
-2.07882e-05
-5.38534e-05
-0.000136916
-0.000141475
-1.00666e-05
-0.000841572
-5.53578e-05
-8.42819e-05
0.0481384
0.000965195
0.00184827
0.000286843
-0.00176615
-0.000233285
2.08141
1.93747
-0.0177754
-0.0608594
-0.00897664
1.43335
0.622021
-0.00344969
-4.21375e-05
-3.02356e-05
-0.00026354
0.128671
3.03283
-2.59045e-05
1.56279e-07
-1.56309e-05
1.44193e-06
-3.28139e-05
-2.03408e-06
5.21813e-07
-0.000498013
-2.12664e-07
-0.00363688
-5.40215e-05
-2.99011e-06
-0.00032836
5.08363e-05
-1.92829e-05
-2.96722e-05
1.57426
0.000149598
-9.33557e-06
7.87961e-06
2.17148e-06
-2.09195e-05
-0.0303757
-5.7426e-05
0.000218801
-5.50942e-05
-5.72378e-06
-4.18325e-07
-0.000146687
5.49928e-06
0.925839
9.67657e-05
-8.98302e-06
4.43815e-06
-0.017005
-1.12714e-05
-4.23124e-06
0.000165879
1.22764e-06
-0.00239531
-8.41736e-05
-1.20304e-06
-8.95699e-07
2.47493e-06
-1.32208e-05
-0.0163781
-0.0124282
4.47622e-05
-0.000331715
-2.36074e-05
-4.8953e-05
1.07215e-05
-1.38112e-06
-4.42555e-07
-1.37759e-06
-0.00418445
4.60386e-06
-0.000514791
-0.00179023
-0.00120159
0.00110368
-3.93057e-06
-7.88023e-06
-4.83431e-05
6.63238e-07
-1.42782e-05
3.88931e-06
2.29839e-05
5.35693e-05
-4.24423e-06
-2.78486e-07
1.9371e-06
-1.45537e-05
1.54976e-05
0.00027377
1.57868e-05
-0.0011998
3.91632
4.40401
3.05252
4.62346
2.08254
4.18388
3.73117
4.57734
-0.000695888
-0.00277883
1.99318e-05
0.000493432
0.000144584
0.203484
-5.79262e-05
-0.000651056
-2.84825e-05
-0.0179136
0.154828
-0.0065765
-0.0165488
0.105719
0.537375
1.06811
0.000720485
-0.00271114
-0.000337753
0.0006049
-0.00585732
-0.00909524
-0.0337611
2.123
0.677743
0.326354
1.62073
1.66091
1.1412
2.54917
2.90194
0.000324351
0.000106022
0.165786
0.513472
0.144226
0.0605128
-0.0151484
0.0152723
-0.0281057
-0.00622521
2.55831
1.19827
0.00339832
3.05819
0.00139772
1.96565
2.51013
2.30536
3.19539
2.80493
2.05772
2.88271
3.46084
4.17686
3.95316
3.87934
3.54744
-0.0116
3.33362
0.0530574
3.63472
-0.0103717
2.41359
-0.00339473
2.6071
4.28762
3.68743
3.4457
4.04145
3.84638
3.12882
-0.00371235
1.20342
3.30979
-0.00277304
3.87019
3.76257
-0.00649581
2.8759
4.119
-0.00853166
3.38237
1.03009
0.668452
0.134066
1.82442
4.26037
2.91946
0.00670983
-0.0115401
3.93953
0.513858
0.479783
0.0113723
4.24991
0.199674
0.995197
1.53934
1.58835
-0.00842137
2.00896
0.918823
4.37813
0.653185
1.52134
3.66806
2.60328
4.07641
0.998592
0.326071
-0.0052621
0.593473
-0.0122333
1.58526
0.553263
0.438242
-0.0123757
2.30375
-0.00103894
0.672776
0.0107838
0.399752
-0.00531203
0.286718
-0.0065756
0.959894
0.0693004
0.0725337
0.896479
3.19522
2.98685
2.16
3.66192
4.15805
3.30686
0.0248266
0.00139104
-3.04301e-05
-1.48233e-05
-2.14182e-07
-4.3506e-06
2.52855e-05
8.38931e-07
2.52576e-05
4.07248e-05
-7.89234e-06
-5.14721e-06
8.33246e-07
8.97036e-06
-1.80595e-06
1.59454e-05
1.71262e-05
1.14267e-06
4.97354e-06
-2.20846e-05
-4.73168e-05
-1.87837e-06
-5.51663e-05
1.44305e-05
4.16078e-05
6.67429e-05
0.000633051
0.000212628
-0.000205278
9.90881e-05
-0.000120196
-1.89851e-05
0.154034
1.8497e-05
4.97509e-05
0.305725
-1.11804e-05
-1.42227e-05
-0.00986652
4.266e-06
2.90552e-06
0.000865808
-2.80997e-07
-0.0009257
1.81968e-05
0.140668
8.20731e-06
-1.02395e-05
-1.46701e-05
-0.00235134
-5.06319e-06
-1.75112e-06
-0.000347473
6.35939e-06
0.00105654
-0.000304562
0.0506067
-9.37445e-06
-4.50677e-05
-0.000980785
7.06842e-05
-0.00237423
-9.14701e-05
2.0444e-05
-0.000639836
0.000751982
-0.00709306
0.000523827
-0.000606048
-0.00019148
2.95255e-05
-3.42785e-05
-2.59482e-05
1.49632e-07
2.13888e-05
2.67725e-05
-0.000110883
0.000126544
-0.000728728
-0.000175622
0.000177068
-6.27013e-05
-0.000301342
-9.43472e-07
-0.000201075
-8.40545e-05
6.46704e-07
9.76177e-05
-9.50869e-05
-0.000178378
0.000390903
-1.71383e-05
-9.74422e-06
-0.000111027
-6.71336e-06
2.60188e-05
1.33391e-05
5.2877e-07
-4.55805e-05
-8.46106e-05
-0.0004845
-8.01643e-05
5.09205e-05
-0.000731194
-2.56287e-06
0.000145733
-2.04995e-05
-0.000254284
6.8437e-06
-0.00014693
-0.00116568
-4.31301e-05
-0.000498161
0.00748076
0.000141764
0.000326517
0.0519809
-1.47335e-06
1.84001e-05
-9.87553e-07
-8.8345e-05
-3.39416e-06
-2.23304e-05
-0.00017361
2.99117e-07
-4.041e-05
1.00461e-06
-2.54773e-05
3.01536e-05
-0.000126269
4.1218e-08
6.94367e-09
3.20247e-08
3.04547e-08
4.47181e-08
2.63771e-08
9.0473e-09
-1.82554e-08
-3.41467e-09
-3.6009e-09
-2.67813e-09
2.61053e-09
-9.049e-10
7.64946e-09
2.00797e-09
-5.0584e-08
4.23906e-07
2.36019e-07
8.26479e-07
-1.39593e-07
-1.01362e-07
-5.60832e-08
-4.0534e-09
1.15707e-09
-9.71896e-10
-2.13829e-09
3.47533e-09
-2.35523e-09
-1.42708e-08
-1.52551e-09
1.36297e-09
-9.95809e-09
-5.94431e-09
-7.01447e-09
4.81689e-06
2.00598e-06
4.67504e-09
-4.29772e-08
9.58951e-07
-2.59733e-06
-1.22102e-08
-7.33461e-09
-6.13964e-09
1.13402e-06
1.18571e-06
-1.59499e-06
-3.39476e-07
5.60909e-07
4.50852e-09
-1.94155e-06
-2.3647e-09
-1.90845e-06
-6.30841e-07
-1.2039e-08
4.4891e-07
-3.48611e-08
-6.14819e-08
-2.43621e-07
-4.90571e-10
3.21905e-08
8.06559e-09
2.38702e-09
-2.29912e-07
-5.43597e-07
-6.70946e-07
-7.89909e-09
-8.81221e-08
3.24481e-07
-3.65788e-08
4.36425e-08
-6.00713e-08
2.67851e-09
-2.04728e-09
-1.05987e-08
3.68799e-09
3.62395e-08
-1.9287e-08
3.78193e-08
-6.04937e-09
9.17769e-07
-3.61997e-07
-1.07915e-08
-1.04823e-07
-4.70705e-08
-2.60362e-06
0
-3.77e-08
-6.88317e-08
3.1401e-10
5.78676e-08
2.76032e-09
0
-3.71954e-06
-1.11867e-07
-1.61854e-07
6.85078e-08
-1.02435e-05
4.86429e-08
-3.19927e-08
-1.21143e-07
3.58756e-07
-2.50478e-07
-5.14563e-08
-1.45091e-08
-3.24425e-06
-1.02036e-06
-3.78611e-06
1.39774e-06
1.02652e-06
-7.90769e-07
-5.13084e-07
4.26893e-07
4.92944e-06
9.53522e-08
-2.54347e-08
3.00915e-08
-1.54923e-08
-2.02711e-08
-4.59255e-08
-1.85142e-08
-1.71425e-07
-8.7101e-08
8.84421e-09
4.53956e-08
-2.71107e-06
-6.20329e-07
-6.28835e-07
2.98953e-06
-3.80421e-10
-4.16367e-10
-2.42945e-10
-2.65492e-10
3.31193e-10
2.53344e-10
1.67073e-09
0
0
-1.5561e-10
-1.18178e-10
0
0
0
2.70774e-10
-1.75785e-10
-2.2723e-10
0
1.86054e-09
6.97206e-10
7.03269e-10
0
0
0
0
0
0
-1.15127e-10
0
0
0
0
0
0
0
0
0
0
0
0
0
0
0
-1.06815e-09
0
0
0
-4.15202e-10
1.9943e-09
-1.67865e-09
0
0
0
0
0
0
0
0
0
-2.33346e-10
0
0
0
0
-8.07556e-10
0
0
0
0
0
0
0
0
0
4.38633e-10
-6.45177e-10
-1.33582e-10
0
-2.70492e-10
-1.21501e-10
0
-8.61671e-10
-1.18847e-10
0
0
0
0
0
0
-1.82143e-10
0
0
0
0
0
0
-6.66986e-10
0
0
0
0
0
0
0
0
0
0
0
0
0
0
0
0
0
3.60784e-10
0
0
0
0
0
0
0
0
0
0
0
0
0
-2.85576e-08
-3.45157e-08
-2.42873e-06
-4.37195e-06
-5.18915e-07
-7.7946e-08
-1.16085e-08
-1.25209e-07
-4.85788e-07
-3.85606e-07
-4.44446e-07
-5.16436e-09
-8.84782e-09
-1.54044e-08
-1.40139e-08
-2.38704e-08
-1.15637e-09
1.18629e-08
-3.11299e-08
-4.82921e-10
1.7176e-10
-3.39962e-10
-3.24794e-09
-2.57536e-09
-8.60205e-09
-1.52e-07
-4.4898e-07
-2.3063e-07
-1.33553e-07
4.86814e-07
-8.33727e-09
-3.20149e-07
4.49328e-07
4.11378e-07
-1.74158e-08
-9.62238e-07
-1.15943e-10
-1.97434e-06
-8.05271e-07
-4.39247e-10
-1.91365e-09
-5.69163e-09
-4.9135e-10
-2.67537e-08
7.31304e-09
-3.32196e-09
-1.47202e-09
0
-1.19581e-08
-2.83197e-06
-7.00635e-07
-3.51982e-06
-5.08582e-09
-2.00526e-09
-1.57495e-07
-5.63797e-06
-1.32794e-08
-5.49174e-09
7.08986e-08
-7.54956e-07
-5.8072e-08
8.40581e-08
-4.85468e-08
-9.7731e-07
-1.77195e-06
-2.88262e-07
9.98743e-08
8.58405e-08
-3.47912e-07
-3.17765e-07
-5.03189e-07
-1.2779e-09
-3.1394e-07
4.22526e-09
1.06619e-08
-2.11316e-07
-1.06208e-06
-2.47263e-06
4.37027e-07
-2.22311e-07
0
3.21088e-08
-2.10439e-06
-5.83762e-09
6.57903e-09
-6.48473e-08
-5.99273e-09
-1.2091e-07
-7.82764e-10
-1.17906e-07
-1.68604e-08
-3.63296e-06
-2.75397e-06
-3.85246e-08
-7.29849e-07
-8.24648e-08
-2.314e-07
-1.02395e-09
-2.89931e-08
-7.8291e-09
-6.9581e-09
-5.0754e-09
-3.10098e-10
-7.97336e-09
-1.49824e-08
-1.15397e-09
-4.466e-08
-1.31846e-09
-2.10654e-08
-1.01763e-08
-2.44909e-09
1.18942e-09
-1.65664e-09
-1.31943e-10
0
-2.71298e-10
-3.41759e-10
-1.48592e-08
-9.07671e-10
-3.02744e-06
-7.14294e-08
-8.94045e-07
-5.76263e-07
-9.48136e-07
-1.63706e-06
-3.14073e-06
-8.02873e-06
-5.1739e-06
0
0
-3.13702e-10
0
-3.68323e-10
-3.77542e-10
0
0
-1.38425e-10
0
0
0
0
0
0
0
0
0
0
0
0
0
0
0
0
0
0
0
0
0
0
0
0
0
0
0
0
0
0
0
0
0
0
0
0
-1.7564e-10
0
0
0
0
0
0
0
0
0
0
0
0
0
0
0
0
0
0
0
0
0
0
0
0
0
0
0
0
0
0
0
0
0
0
0
0
0
0
0
0
0
0
0
0
0
0
0
0
0
0
0
0
0
0
0
0
0
0
0
0
0
0
0
0
0
0
0
0
0
0
0
0
0
-1.60447e-10
-1.40444e-10
-1.38467e-10
-1.13433e-10
0
0
0
0
0
0
0
0
0
3.74014e-10
-2.54008e-09
0
-1.07921e-08
-4.65533e-10
2.02644e-10
-3.11942e-10
-1.5989e-10
1.00089e-10
0
-2.8124e-07
-2.39635e-08
-3.13841e-08
-8.03808e-08
-2.05334e-08
-1.1157e-09
-1.26118e-08
-1.40003e-08
-2.69998e-10
-2.2773e-10
-1.3662e-07
-6.73994e-07
-2.65014e-07
-5.18888e-07
-4.66773e-07
-8.51932e-07
-1.85414e-06
0
-5.42898e-08
-8.1425e-06
-1.10942e-05
0
-1.22883e-06
3.68053e-08
-1.96634e-10
1.02579e-10
-1.0394e-06
1.23554e-08
-2.76047e-07
-5.43208e-08
0
3.79899e-09
-1.47464e-07
3.62842e-10
1.08754e-09
-7.91303e-09
1.39423e-09
-2.3893e-10
-7.58817e-09
7.66997e-10
0
-1.06922e-08
-6.45383e-08
-4.01441e-06
-6.17692e-07
2.8208e-10
1.77747e-10
-7.20881e-08
8.94064e-08
-5.98327e-07
-1.58842e-06
-5.48747e-08
0
-4.31694e-07
-6.63998e-08
-3.19706e-08
5.24862e-09
-8.24862e-09
-3.35009e-09
-3.25335e-09
-2.19202e-09
0
-2.69254e-07
-2.42224e-06
-4.1499e-10
-1.50195e-10
1.74565e-10
4.32208e-10
-5.94705e-09
1.04254e-08
-1.29998e-09
2.38988e-09
-7.38798e-07
-1.48768e-10
3.64278e-10
-6.82636e-10
-1.07055e-08
4.83808e-09
-3.06249e-10
7.61919e-09
-3.0859e-09
6.83024e-10
2.64349e-10
2.32896e-09
-4.50454e-09
-2.55635e-07
-3.02805e-06
8.64082e-08
-1.7135e-08
2.76206e-07
3.80187e-08
-1.2199e-07
-5.0154e-09
1.55452e-08
4.24692e-08
6.85321e-08
-7.85466e-09
-9.78196e-08
-4.03763e-08
-5.13311e-09
5.4591e-08
2.229e-08
1.00262e-07
-1.07681e-09
2.86161e-08
-8.37415e-10
3.52437e-09
2.2562e-08
-1.82053e-09
-2.41346e-08
-6.60774e-10
1.67894e-08
-7.61485e-07
-4.04963e-06
0
0
0
0
0
0
0
0
0
0
0
0
0
0
0
0
0
0
0
0
0
0
0
0
0
0
0
0
0
0
0
0
0
0
-1.04199e-10
-1.21122e-10
0
0
0
0
0
0
0
0
0
0
0
0
0
0
0
0
0
0
0
0
0
0
0
0
0
0
0
0
0
0
0
0
0
0
0
0
0
0
0
0
0
0
0
0
0
0
0
0
0
0
0
0
0
0
2.13864e-10
0
0
0
0
0
0
0
0
0
0
0
0
0
0
0
0
-3.75997e-10
0
0
0
0
0
0
0
0
0
0
0
0
0
0
0
0
0
0
0
0
-3.26479e-06
1.36347e-07
-2.02058e-07
1.32215e-07
6.07098e-08
3.27412e-07
-2.5152e-07
2.09355e-07
-6.86941e-07
5.5415e-08
-2.50106e-08
-3.94309e-07
-4.58451e-06
1.52012e-07
2.78532e-08
2.80063e-07
-4.48573e-06
-4.142e-06
-6.14106e-07
3.01216e-07
9.36249e-07
1.03721e-06
-5.87938e-07
-9.97723e-07
1.50841e-06
2.59325e-06
7.80816e-08
-4.76287e-07
4.03682e-06
-2.53149e-06
-1.78025e-06
-3.38768e-08
3.27288e-07
-6.96686e-08
2.01476e-08
-5.54892e-05
-3.81823e-06
3.57604e-08
1.59582e-07
-2.1126e-08
-0.000107342
-2.87064e-05
-4.27772e-05
-3.65446e-07
-1.51438e-05
-2.47877e-07
-2.00272e-05
-8.00246e-06
1.72915e-06
-5.79836e-05
-2.00247e-08
-5.31055e-08
-2.13659e-05
-5.41587e-08
6.15756e-07
-7.65153e-06
-3.13956e-08
-6.83629e-06
-2.15411e-05
-5.24858e-08
6.04207e-06
8.82345e-10
-1.75543e-05
-3.13434e-07
-3.26653e-05
-7.81246e-06
-2.53762e-06
-1.31756e-05
2.94708e-06
-1.4092e-05
4.3924e-08
-6.28941e-06
-1.42971e-06
5.49426e-06
-5.97981e-06
-1.26244e-07
-3.03037e-06
-3.12557e-05
-8.50368e-09
1.29742e-08
-1.29937e-06
-9.69336e-08
1.64953e-05
6.20654e-08
-3.70569e-05
8.05142e-07
-1.1815e-06
-2.23159e-06
-6.76286e-06
4.14178e-06
-1.77596e-05
-1.25848e-09
-7.16168e-06
-1.05444e-05
-1.13163e-08
-5.47558e-07
-4.63107e-08
-9.31871e-05
2.33847e-08
1.30804e-05
3.30238e-07
-7.51521e-06
-4.20164e-08
-1.07976e-05
-5.5428e-06
-2.76192e-06
-2.02526e-07
-2.14135e-05
-7.60509e-06
-6.90108e-06
3.36424e-09
-1.24592e-05
3.07836e-08
-2.49137e-05
-1.84501e-09
-1.53922e-06
3.3112e-09
-2.23724e-06
-3.06278e-09
-1.00607e-06
-6.02248e-10
-1.59667e-05
1.37208e-09
-6.49059e-07
-8.12542e-06
6.9029e-08
1.24308e-07
-1.58854e-07
0
0
0
0
0
0
0
-1.62032e-09
-3.9033e-09
2.57491e-09
-1.12516e-10
7.55915e-09
8.27784e-10
0
7.53854e-09
3.33009e-08
-5.68873e-08
7.0746e-08
3.96334e-08
2.73295e-08
-2.17293e-08
0
-9.03397e-10
-2.91269e-10
1.10404e-09
-1.09245e-10
2.07661e-10
0
0
3.10238e-10
2.79822e-10
0
0
4.04118e-10
6.35665e-10
3.31703e-10
0
-6.52384e-10
0
6.09859e-09
-1.58663e-09
-2.53585e-10
-3.28172e-08
-1.00924e-07
0
8.43348e-09
-1.636e-09
1.49542e-10
2.2414e-10
0
0
-9.61548e-08
-2.95777e-10
-8.39205e-10
3.17368e-10
1.93813e-09
-1.95134e-09
-3.82881e-09
-2.86199e-07
1.0001e-07
-1.24568e-06
7.43275e-08
5.8874e-08
2.85834e-08
2.06678e-08
-9.6975e-08
0
-1.26788e-09
-9.83466e-08
0
-4.41872e-08
3.07995e-08
0
-5.8018e-07
-6.40603e-09
-8.65065e-08
-3.93536e-08
-1.37071e-10
0
-2.93421e-10
1.91366e-09
6.32897e-10
-2.71703e-08
0
-7.77232e-07
-1.05699e-10
4.10879e-09
0
-1.76269e-06
-1.01393e-10
2.17684e-10
0
0
-1.28586e-10
-2.01954e-10
1.14357e-10
1.4667e-10
-2.35098e-06
0
-1.62312e-10
1.03338e-07
-3.33305e-10
-3.7621e-10
1.47359e-10
-2.49872e-07
-5.95027e-10
5.93018e-10
-3.05617e-07
4.9018e-10
4.48041e-09
3.80659e-08
0
-2.64485e-08
0
-1.37172e-09
0
-2.7898e-08
0
3.36747e-09
-1.81184e-08
-1.0413e-07
-3.28013e-10
0
-2.60033e-09
2.63917e-10
-5.67273e-10
0
1.62362e-09
3.00292
3.41172
3.44685
3.04495
3.78694
3.74883
4.02345
4.06409
2.13857
2.49838
0.000334944
0.00294115
0.0050232
4.28139
3.98427
3.27624
3.75372
2.66681
3.57546
3.0403
1.91161
0.0108287
0.0233114
0.0128316
0.126038
0.00838606
-0.0125527
2.40683
1.75255
0.255404
1.04085
-0.101807
0.787905
-0.0739677
-0.00554275
0.0148939
1.36535
4.5792
0.00658074
0.620796