# vtk DataFile Version 2.0
Unstructured Grid by M++
ASCII
DATASET UNSTRUCTURED_GRID
POINTS 4225 float
  0.890625   0.781250 0
  0.906250   0.765625 0
  0.968750   0.765625 0
  0.984375   0.781250 0
  0.968750   0.937500 0
  0.937500   0.906250 0
  0.968750   0.906250 0
  0.953125   0.890625 0
  0.953125   0.859375 0
  0.937500   0.875000 0
  0.953125   0.968750 0
  0.937500   0.937500 0
  0.890625   0.859375 0
  0.968750   0.968750 0
  1.000000   0.765625 0
  0.968750   0.953125 0
  0.953125   0.921875 0
  0.906250   0.843750 0
  0.968750   0.984375 0
  0.953125   0.953125 0
  0.906250   0.875000 0
  0.968750   0.859375 0
  0.937500   0.828125 0
  0.968750   0.875000 0
  0.953125   0.843750 0
  0.937500   0.843750 0
  0.953125   0.812500 0
  0.937500   0.953125 0
  0.953125   0.781250 0
  0.953125   1.000000 0
  1.000000   0.828125 0
  1.000000   0.859375 0
  0.906250   0.953125 0
  0.968750   1.000000 0
  1.000000   0.796875 0
  0.937500   0.796875 0
  0.937500   0.765625 0
  0.984375   0.875000 0
  0.890625   0.968750 0
  0.953125   0.984375 0
  0.906250   0.906250 0
  0.937500   0.984375 0
  0.984375   0.812500 0
  0.906250   0.937500 0
  0.984375   0.843750 0
  0.890625   0.937500 0
  0.906250   0.968750 0
  0.937500   1.000000 0
  0.968750   0.796875 0
  0.890625   0.921875 0
  0.968750   0.828125 0
  0.890625   0.953125 0
  0.937500   0.968750 0
  0.890625   0.890625 0
  1.000000   0.937500 0
  0.984375   0.921875 0
  0.890625   1.000000 0
  1.000000   0.906250 0
  1.000000   0.890625 0
  0.906250   0.984375 0
  0.984375   0.890625 0
  1.000000   0.953125 0
  0.984375   0.953125 0
  1.000000   0.968750 0
  0.984375   0.968750 0
  1.000000   1.000000 0
  0.984375   1.000000 0
  0.984375   0.984375 0
  1.000000   0.984375 0
  0.921875   0.812500 0
  0.906250   0.812500 0
  0.906250   0.796875 0
  0.921875   0.781250 0
  0.890625   0.812500 0
  0.890625   0.828125 0
  0.906250   0.828125 0
  0.890625   0.796875 0
  0.890625   0.984375 0
  0.906250   1.000000 0
  0.921875   0.828125 0
  0.921875   0.843750 0
  0.921875   0.859375 0
  0.921875   0.953125 0
  0.921875   0.968750 0
  0.921875   1.000000 0
  0.921875   0.984375 0
  0.921875   0.890625 0
  0.921875   0.921875 0
  1.000000   0.656250 0
  0.984375   0.640625 0
  0.984375   0.671875 0
  1.000000   0.687500 0
  0.906250   0.734375 0
  0.984375   0.609375 0
  1.000000   0.625000 0
  1.000000   0.593750 0
  1.000000   0.609375 0
  0.906250   0.703125 0
  0.984375   0.578125 0
  0.968750   0.734375 0
  1.000000   0.578125 0
  0.906250   0.671875 0
  0.953125   0.750000 0
  0.968750   0.703125 0
  0.968750   0.687500 0
  0.937500   0.656250 0
  0.968750   0.656250 0
  0.953125   0.640625 0
  0.890625   0.750000 0
  0.968750   0.625000 0
  0.937500   0.734375 0
  0.984375   0.562500 0
  0.890625   0.656250 0
  0.937500   0.687500 0
  0.890625   0.609375 0
  0.937500   0.703125 0
  0.984375   0.531250 0
  0.906250   0.656250 0
  0.953125   0.703125 0
  0.906250   0.625000 0
  0.953125   0.671875 0
  0.906250   0.593750 0
  0.937500   0.625000 0
  0.953125   0.531250 0
  0.937500   0.531250 0
  0.953125   0.562500 0
  0.937500   0.562500 0
  0.937500   0.593750 0
  0.953125   0.718750 0
  1.000000   0.546875 0
  0.968750   0.718750 0
  0.953125   0.687500 0
  1.000000   0.515625 0
  0.968750   0.546875 0
  0.890625   0.640625 0
  0.968750   0.515625 0
  0.984375   0.593750 0
  0.890625   0.687500 0
  0.968750   0.562500 0
  0.937500   0.515625 0
  0.937500   0.546875 0
  0.890625   0.718750 0
  0.968750   0.593750 0
  0.968750   0.578125 0
  0.953125   0.546875 0
  0.953125   0.578125 0
  0.953125   0.609375 0
  0.984375   0.703125 0
  1.000000   0.718750 0
  0.984375   0.718750 0
  1.000000   0.750000 0
  0.984375   0.750000 0
  0.984375   0.734375 0
  1.000000   0.734375 0
  0.921875   0.546875 0
  0.906250   0.562500 0
  0.906250   0.531250 0
  0.921875   0.531250 0
  0.921875   0.515625 0
  0.906250   0.515625 0
  0.921875   0.578125 0
  0.921875   0.609375 0
  0.921875   0.687500 0
  0.921875   0.718750 0
  0.921875   0.750000 0
  0.921875   0.640625 0
  0.921875   0.671875 0
  0.890625   0.578125 0
  0.890625   0.546875 0
  0.890625   0.515625 0
  0.828125   0.796875 0
  0.875000   0.843750 0
  0.859375   0.828125 0
  0.781250   0.953125 0
  0.843750   0.843750 0
  0.765625   0.968750 0
  0.859375   0.890625 0
  1.000000   0.921875 0
  0.765625   0.984375 0
  0.859375   0.859375 0
  0.781250   0.984375 0
  0.875000   0.875000 0
  0.875000   0.906250 0
  0.781250   1.000000 0
  0.843750   0.875000 0
  0.765625   1.000000 0
  0.843750   0.906250 0
  0.875000   0.921875 0
  0.859375   0.921875 0
  0.875000   0.984375 0
  0.796875   0.984375 0
  1.000000   0.875000 0
  0.765625   0.937500 0
  0.843750   0.812500 0
  0.875000   0.953125 0
  0.796875   0.953125 0
  0.781250   0.921875 0
  0.859375   0.796875 0
  0.843750   0.921875 0
  0.859375   0.953125 0
  0.812500   0.984375 0
  0.843750   0.781250 0
  1.000000   0.843750 0
  0.765625   0.906250 0
  0.812500   0.953125 0
  0.859375   0.781250 0
  1.000000   0.812500 0
  0.765625   0.875000 0
  0.828125   0.953125 0
  1.000000   0.781250 0
  0.765625   0.843750 0
  0.828125   0.968750 0
  0.843750   1.000000 0
  0.859375   0.765625 0
  0.875000   0.796875 0
  0.781250   0.890625 0
  0.828125   0.937500 0
  0.843750   0.968750 0
  0.875000   0.765625 0
  0.781250   0.859375 0
  0.812500   0.781250 0
  0.781250   0.968750 0
  0.859375   0.968750 0
  0.812500   1.000000 0
  0.828125   0.765625 0
  0.875000   0.812500 0
  0.843750   0.984375 0
  0.875000   0.781250 0
  0.812500   0.968750 0
  0.843750   0.765625 0
  0.875000   0.937500 0
  0.812500   0.812500 0
  0.781250   0.843750 0
  0.875000   0.968750 0
  0.859375   0.937500 0
  0.875000   1.000000 0
  0.859375   1.000000 0
  0.859375   0.984375 0
  0.843750   0.953125 0
  0.765625   0.953125 0
  0.828125   0.984375 0
  0.828125   1.000000 0
  0.812500   0.875000 0
  0.828125   0.890625 0
  0.812500   0.890625 0
  0.828125   0.906250 0
  0.812500   0.921875 0
  0.828125   0.859375 0
  0.812500   0.843750 0
  0.828125   0.828125 0
  0.765625   0.796875 0
  0.781250   0.781250 0
  0.781250   0.812500 0
  1.000000   0.703125 0
  0.765625   0.765625 0
  0.765625   0.828125 0
  0.796875   0.796875 0
  0.796875   0.765625 0
  0.796875   0.875000 0
  0.796875   0.859375 0
  0.796875   0.828125 0
  0.796875   0.906250 0
  0.796875   0.937500 0
  0.796875   0.968750 0
  0.796875   1.000000 0
  0.875000   0.593750 0
  0.781250   0.687500 0
  0.843750   0.593750 0
  0.859375   0.609375 0
  1.000000   0.640625 0
  0.765625   0.703125 0
  0.843750   0.609375 0
  1.000000   0.671875 0
  0.765625   0.734375 0
  0.875000   0.640625 0
  0.875000   0.625000 0
  0.781250   0.718750 0
  0.859375   0.625000 0
  0.781250   0.750000 0
  0.875000   0.671875 0
  0.843750   0.640625 0
  0.843750   0.750000 0
  0.875000   0.734375 0
  0.859375   0.750000 0
  0.859375   0.718750 0
  0.859375   0.687500 0
  0.843750   0.671875 0
  0.875000   0.703125 0
  0.859375   0.656250 0
  1.000000   0.531250 0
  0.765625   0.593750 0
  0.828125   0.734375 0
  0.765625   0.687500 0
  0.781250   0.703125 0
  0.859375   0.578125 0
  0.812500   0.750000 0
  0.796875   0.687500 0
  0.875000   0.562500 0
  0.796875   0.718750 0
  0.843750   0.734375 0
  0.875000   0.531250 0
  0.843750   0.703125 0
  0.812500   0.703125 0
  1.000000   0.562500 0
  0.765625   0.625000 0
  0.781250   0.671875 0
  0.812500   0.718750 0
  0.859375   0.546875 0
  0.859375   0.515625 0
  0.781250   0.640625 0
  0.781250   0.609375 0
  0.796875   0.734375 0
  0.843750   0.562500 0
  0.796875   0.703125 0
  0.812500   0.734375 0
  0.765625   0.656250 0
  0.843750   0.531250 0
  0.828125   0.515625 0
  0.812500   0.531250 0
  0.812500   0.562500 0
  0.828125   0.546875 0
  0.828125   0.687500 0
  0.828125   0.718750 0
  0.828125   0.625000 0
  0.812500   0.640625 0
  0.828125   0.656250 0
  0.812500   0.671875 0
  0.812500   0.609375 0
  0.828125   0.609375 0
  0.812500   0.593750 0
  0.828125   0.593750 0
  0.828125   0.578125 0
  0.812500   0.578125 0
  0.796875   0.625000 0
  0.796875   0.593750 0
  0.796875   0.578125 0
  0.796875   0.562500 0
  0.781250   0.578125 0
  0.781250   0.562500 0
  0.796875   0.656250 0
  0.796875   0.515625 0
  0.781250   0.531250 0
  0.796875   0.546875 0
  0.781250   0.546875 0
  0.828125   0.750000 0
  0.765625   0.515625 0
  0.765625   0.546875 0
  0.937500   0.750000 0
  0.703125   0.812500 0
  0.953125   0.937500 0
  0.718750   1.000000 0
  0.640625   1.000000 0
  0.953125   0.906250 0
  0.718750   0.968750 0
  0.640625   0.968750 0
  0.984375   0.828125 0
  0.750000   0.890625 0
  0.718750   0.921875 0
  0.953125   0.875000 0
  0.718750   0.937500 0
  0.984375   0.859375 0
  0.750000   0.921875 0
  0.734375   0.937500 0
  0.968750   0.843750 0
  0.734375   0.906250 0
  0.687500   0.921875 0
  0.640625   0.843750 0
  0.703125   0.937500 0
  0.656250   0.859375 0
  0.718750   0.953125 0
  0.937500   0.859375 0
  0.703125   0.921875 0
  0.718750   0.984375 0
  0.937500   0.890625 0
  0.703125   0.953125 0
  0.750000   0.781250 0
  0.703125   0.968750 0
  0.921875   0.875000 0
  0.687500   0.937500 0
  0.734375   0.765625 0
  0.656250   0.890625 0
  0.703125   1.000000 0
  0.921875   0.906250 0
  0.687500   0.968750 0
  0.734375   0.796875 0
  0.875000   0.828125 0
  0.640625   0.890625 0
  0.984375   0.796875 0
  0.750000   0.859375 0
  0.656250   1.000000 0
  0.968750   0.812500 0
  0.734375   0.875000 0
  0.890625   0.906250 0
  0.656250   0.968750 0
  0.968750   0.781250 0
  0.734375   0.843750 0
  0.750000   0.843750 0
  0.890625   0.875000 0
  0.656250   0.937500 0
  0.968750   0.750000 0
  0.734375   0.812500 0
  0.640625   0.984375 0
  0.953125   0.796875 0
  0.718750   0.859375 0
  0.875000   0.890625 0
  0.640625   0.953125 0
  0.953125   0.765625 0
  0.718750   0.828125 0
  0.687500   0.781250 0
  0.953125   0.828125 0
  0.718750   0.890625 0
  0.687500   0.953125 0
[...]
CELL_DATA 4096
SCALARS scalar_value float 1
LOOKUP_TABLE default
-1.62829e-05
2.0348e-06
-4.37511e-07
3.79241
3.489
3.68547
3.04603
3.45397
3.59747
3.03735
0.938336
2.26118
2.99813e-06
-1.10648e-05
2.73656e-06
-5.07972e-07
-0.000207964
5.29446e-05
-1.2671e-05
5.10521e-05
-1.03341e-06
-1.19662e-05
2.15917e-07
-5.0858e-07
-6.30388e-06
-4.67798e-05
0.802629
0.756099
0.33997
2.64789
2.13696
-8.12161e-06
1.69501e-05
-0.000345262
3.08494e-06
0.000149248
1.12535
0.000850227
1.31671e-05
8.20917e-05
0.105171
0.859692
0.0758317
0.00146012
0.000354883
-2.0067e-07
0.000871588
-3.48613e-05
0.00228021
-0.00457914
3.79162e-05
2.11585
0.0449794
8.42516e-06
0.00101294
0.097256
-0.00551675
-3.81092e-07
0.000757636
1.44993
0.000120687
9.67928e-05
-7.48598e-05
0.179652
-9.03291e-05
0.00074948
0.00210396
-0.000558589
0.0593767
0.0809796
0.103269
-0.000793304
-5.63148e-05
0.0128095
1.00341
-0.00878527
0.584732
0.00020157
0.0004676
0.993388
-6.14055e-06
-0.00080874
-0.000149014
3.29151
0.000929171
-0.00734237
0.00102783
2.80777e-07
9.48573e-05
4.7383e-05
0.000196762
0.000152492
0.0821964
0.00298254
0.273543
1.73448
0.843809
2.14319
1.05256
-6.7613e-05
-0.000175905
-0.00691447
7.40684e-05
1.75711e-05
-0.000468355
0.000317601
-3.35682e-05
-3.61689e-06
-1.86822e-08
-1.76986e-05
1.31982e-09
1.82705e-06
-1.01058e-06
-6.27896e-05
0.037825
4.86299e-05
0.00164235
0.00775927
0.000141093
0.25835
2.01963
2.93446
2.93023
1.31499
3.00975
1.85129
2.07729
2.75731
-5.2691e-05
4.24794e-05
-5.60069e-06
-2.86745e-05
-0.000132978
-0.000289302
-1.6869e-05
0.00106487
-0.00106278
0.000505887
-0.000993491
-0.00114186
-0.000473607
-0.000955642
0.00072214
-3.13514e-05
-0.000261671
-0.00156315
-0.000520781
0.000107274
-0.00296599
-3.08492e-05
-0.000100488
6.1351e-06
1.56183e-05
6.26836e-05
1.94359
1.58073
-0.000254272
1.2514
0.588162
1.47111e-05
1.07631
-1.50287e-05
1.65374e-05
-0.00105003
-5.68838e-05
-0.000126635
-0.000682433
0.00122392
0.000205151
1.9792
-0.00106261
-0.000190481
-2.6573e-05
-3.74721e-05
0.000254291
0.000233671
-1.29974e-05
-1.15942e-05
3.0432
-5.35429e-06
-3.80973e-05
2.49675
1.81646e-05
6.98277e-05
0.0125705
0.132226
-0.00227915
0.00990583
0.000854307
8.65462e-05
0.00344822
-0.00699395
4.4177e-06
-0.000142763
2.55875
2.53039
2.23684e-05
-3.16801e-05
-1.47262e-05
-2.8552e-06
3.2555
0.000819092
-0.0001142
0.471882
-0.00212792
0.679198
0.961309
0.278433
0.412974
-2.69702e-05
-0.000904351
-8.69382e-05
2.77151
0.000838593
-0.000165986
1.70307e-05
-1.77871e-05
0.0397528
3.49138
-5.56069e-06
-4.93744e-05
2.9549
-2.72701e-06
-1.33806e-05
1.52162e-05
0.000220267
-0.000753963
0.046415
0.0964208
-0.000434539
1.56478
2.27077
1.26661
1.58925
0.668732
0.785871
5.89365e-05
1.9584
0.0299969
0.330615
-7.57887e-05
0.032478
0.0339519
0.216377
1.19181
-0.000241074
2.23454
-6.43975e-05
0.0159363
-3.82342e-06
0.00103476
0.41853
-2.97727e-06
-0.00618401
-0.000214435
0.178392
1.80671
1.9942
3.34128
3.25344
4.51373
4.3962
4.43392
4.09525
4.39557
4.47894
4.10469
0.420821
0.294
-0.00723124
-0.000326104
0.00795947
0.00397517
0.000292144
-1.03567e-05
3.98603e-05
6.43151e-07
-9.10438e-07
2.87969e-07
2.15618e-06
7.45268e-06
2.62079e-06
4.92936e-07
-1.27451e-05
4.64856
4.64068
4.30488
4.64608
4.64621
4.27651
3.92453
0.511933
1.80563
-0.0113961
0.024567
0.00168274
4.48332
0.0161475
-0.0037927
4.55088
3.41863
-0.0427365
0.322126
0.0551194
4.60339
4.24826
1.60229
3.15127
0.680628
0.000127866
-0.00145378
1.15941
-4.21005e-05
0.263225
3.56738
0.181033
1.79032
0.00620266
5.95988e-05
4.17973e-06
-1.72777e-05
0.00133967
4.37082e-05
0.099118
0.000358884
2.98861
4.16007
2.87817
1.47179
-0.00861236
0.000326824
6.71413e-05
1.58423e-05
3.89588e-05
2.79092
4.44564
0.714896
3.47671
4.03549
1.32786
0.038139
3.98976
4.63517
4.01211
2.54136
4.08959
4.61249
3.49145
-0.0136583
2.19313
4.40703
4.61011
4.12633
3.82707
4.49698
4.0229
4.61639
-0.000706658
-1.64051e-05
2.99631e-06
-0.0063435
0.000122169
4.25414e-06
6.96391e-05
0.249542
0.00561631
-0.000620655
0.00428523
0.00325878
-0.000141875
0.0259005
-0.000893952
2.8095e-05
-6.06031e-07
3.39114e-06
0.00168363
-8.61449e-06
-1.35679e-07
1.45028e-07
2.29156e-07
-8.56419e-07
2.77983
-0.000225415
1.74443
-1.83718e-05
-3.81897e-06
-1.42596e-05
3.67638
3.88719
3.87956
3.45852
3.70948
3.40592
3.04036
1.42648
2.23259
3.01512
2.40663
-1.62256e-05
-4.87779e-06
-2.73085e-05
-4.15254e-06
1.87231e-05
-2.11614e-05
-3.58005e-05
0.0524901
0.547901
0.0963593
-0.00776435
2.35994
1.37393
0.929157
2.31209
4.17703
4.19471
4.32953
3.93347
3.70934
-5.47629e-06
2.69053
3.89812
3.72388
-1.99469e-06
3.88162
4.54031
1.79854e-05
-0.00932503
4.60391
4.03151
4.62601
-0.000124212
2.27047e-06
1.06139
4.64603
-0.000120087
-0.000186568
-0.0147331
0.00048052
1.21499
-0.0241434
2.93407
4.35377
4.47358
4.56939
-0.000250826
3.01253
4.16891
0.23893
-8.23001e-05
-8.10496e-06
9.29057e-08
-0.000290779
-0.000221362
-9.67191e-05
-0.00356038
3.27e-06
6.47066e-05
0.377405
0.310597
1.66515
4.50123
-0.000441473
4.31609
4.37222
1.50476
-0.000135519
3.63342
1.26343
-7.37564e-05
8.70783e-06
0.117818
0.155494
-7.69229e-05
1.06993e-06
0.000144736
-0.00128669
-0.000180335
0.122201
2.6431
-0.00185004
-3.80138e-06
4.41667
4.00207
4.63612
-0.00851749
4.59525
-0.000366757
-0.00126909
-0.00128652
0.000107669
-2.12135e-05
1.40346e-05
-0.000122167
-0.000297079
-4.95399e-05
-4.36175e-05
-1.22027e-06
-2.97289e-06
-1.84229e-06
-1.36245e-05
-1.54953e-05
-0.011711
-8.76005e-06
3.33858
-0.000110953
-0.0013608
0.000464661
1.3782e-05
-0.000154458
-0.0175292
-0.0078908
3.16018
0.485412
2.55086
-0.0556966
3.05808
1.31582
2.20184
3.61626
4.18605
3.8547
2.99011
4.57184
4.43318
4.06554
4.3542
4.62819
4.62659
4.63294
4.6018
4.62744
4.61869
4.52239
4.59822
4.68013
4.70638
4.6596
4.62607
4.64333
3.31052
4.58918
2.61711
4.64835
3.85145
4.63568
0.528108
3.32075
3.6213
2.69045
-0.00503262
3.47234
-0.00231858
4.62099
-0.0498908
-0.00450281
-0.00203117
4.64672
-0.000122336
-0.00295063
2.93838
4.61377
0.232972
4.62739
-0.0241421
1.23174
4.65156
-0.0674565
0.00981146
4.63465
0.779433
4.3008
1.57398
-0.0513619
4.62259
-0.00276495
-0.0913496
4.62992
0.0274671
4.51502
0.466855
4.65628
0.00489924
0.0738957
0.00130714
4.64424
-0.0602282
0.262443
-0.0146112
4.632
0.667465
-0.00913776
1.0518
4.63031
0.0283384
0.0154675
4.61602
0.00134779
0.000231433
4.62661
-0.0592152
4.6266
0.200818
-0.00324075
-0.0729555
-0.0013399
4.60801
-0.0318699
-0.014329
4.63744
0.0174806
4.28761
2.93705
3.71068
4.08596
3.86595
1.8918
0.706867
1.70945
-0.108469
2.46767
-0.0139969
1.53064
-0.0164896
1.32955
2.01523
2.4579
1.74411
0.915334
1.13968
4.2746
0.132719
4.41631
2.0925
3.72133
4.05313
3.3491
0.389213
4.54882
-0.0382418
4.64881
-6.32808e-06
-1.2344e-05
-2.81405e-06
-0.00011276
-5.17613e-05
-1.43749e-05
-9.66509e-06
-4.59408e-05
-0.000246707
-2.94619e-05
-5.04614e-05
-7.50527e-05
-8.23135e-05
-0.000237337
0.561202
0.00132647
-0.00211054
0.000614622
-0.00801412
0.000294574
2.64475
2.57783
-0.0797325
-0.157062
-0.0307436
2.17909
1.50061
-0.0128593
-0.000157152
-0.000300194
-0.000721709
0.773013
3.66411
-1.23194e-05
-2.72131e-07
-1.80952e-05
-1.87743e-06
-6.76875e-05
4.44112e-06
1.54535e-07
0.000502199
-1.3119e-06
-0.0123591
-0.000158803
-5.46795e-07
1.96887e-05
7.30131e-06
-0.000109675
1.51554e-05
2.56462
-0.00106171
-2.39813e-05
7.18266e-06
-1.0082e-05
2.30557e-05
-0.0509145
-0.000285642
-0.00125945
-0.000314942
-2.15035e-06
-3.85807e-07
1.76011e-05
1.96619e-05
1.98355
1.71648e-05
-6.10679e-05
-1.64398e-05
0.0518637
5.22567e-05
1.13834e-05
-0.000583624
-3.11262e-06
-0.017189
4.43266e-05
-1.8652e-06
1.10206e-06
-2.14966e-06
1.51114e-05
-0.0214965
0.0208266
-5.24831e-05
-0.00243413
2.85325e-05
-0.000552604
-8.5668e-06
-8.90983e-07
1.8315e-06
7.89356e-08
-0.0270645
-2.54124e-06
-0.00216391
-0.00649723
-0.00125874
-0.00248076
2.7009e-06
-3.54281e-06
1.01824e-06
2.29042e-07
-1.64571e-05
-1.90143e-05
-2.87838e-05
-0.000119392
-1.36405e-05
-7.93268e-06
2.08051e-06
4.70063e-05
0.000149319
-0.000471955
8.59511e-05
0.000296727
4.29934
4.56643
3.70692
4.648
3.00379
4.47077
4.17813
4.62548
-0.000299204
-0.0057196
-3.99491e-05
-0.0028013
-0.000829083
0.959076
0.000147312
0.000461814
1.3702e-05
0.0206537
0.656625
0.0104141
0.224588
0.334743
1.21449
1.78315
-0.00340145
-0.00821963
-0.00350864
0.00391408
-0.0116073
-0.0266628
0.00777623
2.70208
1.13978
0.67444
2.2833
2.28718
1.71283
3.04584
3.3319
-0.00170634
-0.00249427
0.852408
1.39174
0.510223
0.217772
-0.0425197
0.0407363
0.0650341
0.00669543
3.06534
1.99082
0.016111
3.5042
0.000793444
2.64454
2.98332
2.83298
3.56573
3.28546
2.59313
3.30132
3.7871
4.35616
4.21523
4.12799
3.90419
0.000585907
3.80556
0.110945
4.01783
-0.00838394
3.10842
-0.00601227
3.18434
4.4375
3.97313
3.78393
4.25459
4.11047
3.62342
-0.0071286
2.13368
3.7134
0.0130359
4.1918
4.07159
-0.00732762
3.41295
4.33667
0.00131425
3.82537
1.67436
1.24335
0.536624
2.65169
4.43773
3.4937
0.00795751
-0.0288659
4.24833
0.974527
1.07093
0.0206071
4.45736
0.439633
1.5803
2.12882
2.18212
-0.00422461
2.55702
1.49098
4.51948
1.51201
2.3818
4.05299
3.16571
4.33935
1.91507
0.973536
-0.0113933
0.932714
-0.00416056
2.33465
1.05851
0.813654
-0.0029449
2.9268
-0.00425885
1.57254
0.112076
1.05988
-0.0117209
0.855067
-0.00957995
1.67908
0.44904
0.211019
1.41925
3.57508
3.48159
2.77316
3.9615
4.39962
3.73187
0.0891608
0.376642
4.46662e-05
1.66288e-05
-1.04121e-05
-1.47553e-05
-3.05292e-05
1.61853e-05
1.89611e-07
-7.75672e-05
6.59913e-06
4.7873e-06
-6.60121e-06
-9.55023e-06
1.23312e-05
-2.01968e-05
-2.30356e-05
1.52295e-05
-1.43991e-05
4.98093e-05
9.10575e-05
-2.75644e-05
9.39794e-06
2.4812e-05
3.23242e-06
-0.000124748
-0.00075791
0.000521961
-0.000723447
0.000180157
-0.000201714
9.2817e-06
0.295572
-3.40826e-05
-5.84284e-05
0.819734
1.72011e-05
-3.79441e-06
0.040488
-1.0669e-05
-5.5589e-06
-0.00118557
1.0408e-05
-0.000928236
-2.8107e-05
0.407066
2.32113e-06
-4.72243e-05
1.31961e-05
0.10142
-3.79589e-06
3.7556e-08
-6.14617e-05
-3.7134e-06
-0.00519919
0.000491086
0.299299
-3.22592e-05
5.10882e-05
0.00101704
-0.000206007
0.00187042
0.000123038
-8.22829e-05
-0.000121062
-0.00281992
0.0424513
-0.00082421
0.000191072
-3.3529e-05
-7.13837e-05
5.046e-05
0.000552749
-2.07612e-08
0.000171198
-2.16369e-05
7.80517e-05
-0.000647524
-0.00415045
0.00035976
-0.000360482
8.98377e-05
0.000410607
8.35213e-07
0.000134159
-0.000134703
-6.99771e-07
-0.000248249
4.81138e-06
4.59898e-05
-0.000310779
-2.06016e-06
-2.17409e-05
3.64642e-05
4.93483e-06
-0.000147773
-7.21677e-05
6.29853e-07
2.59288e-05
1.69056e-05
7.92914e-06
0.000197872
-0.000104163
-0.000181497
3.42374e-05
-6.19953e-05
-4.67405e-05
0.000736142
-0.000596833
0.000223242
-0.0135954
-7.44634e-05
0.000101812
0.198262
0.00162163
-0.000217718
0.325873
0.000275804
-0.000154943
6.40823e-06
2.90882e-05
6.97908e-06
-0.000110786
1.34608e-05
-3.61639e-06
-0.000192868
-1.79974e-06
4.41479e-08
-0.000132042
-0.000148262
-4.84168e-08
-2.05866e-08
1.26608e-08
-2.8419e-08
-2.22035e-08
-4.7773e-08
-1.6037e-08
1.07061e-08
2.54858e-09
0
3.06905e-09
3.8652e-09
1.98813e-09
4.4573e-08
1.85483e-08
5.76362e-08
-4.1538e-07
-4.80217e-07
-8.45988e-07
1.26856e-07
1.47831e-07
6.95209e-08
-3.57848e-09
3.89484e-09
-5.43389e-09
-1.79509e-09
-1.82983e-09
-2.91197e-09
1.0882e-08
-8.0997e-09
-9.83455e-09
1.99516e-08
-5.8987e-09
-7.59147e-09
6.8267e-07
-1.57952e-06
-5.662e-09
1.18106e-07
-4.01244e-06
-8.87232e-06
-1.77514e-09
1.18493e-08
1.40404e-09
2.28089e-07
9.78963e-07
3.08057e-06
3.5336e-07
-8.96367e-07
-4.55154e-09
-5.7147e-07
2.36847e-10
3.39018e-06
6.00899e-07
1.64234e-08
3.6052e-07
-8.52716e-07
-8.20078e-08
2.75728e-07
7.5413e-08
2.5179e-08
-7.10773e-09
-1.94233e-08
-5.94215e-08
5.33374e-07
-3.40518e-07
1.37227e-08
2.22872e-07
-2.32495e-07
-2.64853e-07
-9.29133e-10
-2.08847e-06
-4.05355e-09
-3.36201e-09
-2.42509e-08
-2.34914e-09
-3.40067e-08
8.64666e-09
-3.75643e-08
-5.81354e-07
-1.12215e-06
8.84293e-07
6.81886e-09
-4.02176e-08
1.13664e-07
4.16664e-07
-1.13293e-09
2.05279e-08
-8.80427e-08
4.08585e-09
-1.05691e-07
-1.33869e-09
-1.58484e-09
-1.50408e-06
9.08375e-08
-7.49173e-08
-1.94718e-07
1.67981e-06
-1.76554e-07
-3.40463e-08
1.07767e-07
-2.29088e-07
-7.52501e-07
6.03001e-07
4.76992e-07
4.08219e-06
-4.79036e-06
2.11978e-06
-8.27435e-07
-2.02742e-06
6.05923e-07
1.65459e-07
-1.79433e-06
-2.34874e-07
-1.50789e-07
-6.95133e-08
-1.05596e-08
-2.59336e-08
-1.84414e-08
4.30344e-08
-4.84664e-08
1.66282e-07
-1.52862e-07
-1.43847e-07
1.89119e-08
2.69648e-06
1.6838e-06
1.4097e-06
-6.36259e-06
3.98409e-10
1.23611e-10
0
2.79974e-10
-8.01008e-10
-9.65259e-10
-1.9091e-09
0
0
2.69367e-10
2.01113e-10
0
0
0
-4.7331e-10
0
2.5599e-10
0
-1.96884e-09
-8.01801e-10
-2.84933e-10
0
0
0
0
0
0
2.13115e-10
0
0
0
0
0
0
0
0
0
0
0
0
0
0
0
-1.69055e-09
0
0
0
-3.29067e-10
-2.57252e-09
-3.81198e-10
0
0
0
0
0
0
0
0
0
-2.7142e-10
0
0
0
0
-2.56586e-10
0
0
-1.65909e-10
0
0
-7.62346e-10
0
0
0
-8.48334e-10
-8.92188e-10
0
0
4.15757e-10
0
0
5.67841e-10
-2.10023e-10
0
0
0
0
0
0
0
0
0
0
0
0
0
7.3326e-10
0
0
0
0
0
0
0
0
0
0
0
0
0
0
0
0
0
-1.67042e-09
0
0
0
0
0
0
0
0
0
0
0
0
0
-1.27051e-08
-9.12213e-08
-3.97016e-06
-1.97789e-06
-1.27451e-06
-1.84425e-06
-1.64382e-07
-1.13387e-07
1.2385e-07
-3.53426e-08
-2.4384e-07
-1.78462e-08
-3.33065e-08
-4.26235e-10
-8.04727e-10
-1.80437e-07
-1.09659e-07
-6.681e-08
-6.77269e-08
-2.9766e-09
-1.34465e-09
-1.24136e-09
-2.51511e-09
-4.65071e-09
-2.73233e-09
-2.62657e-08
2.66975e-07
-1.31489e-08
2.28973e-08
-1.76498e-06
-1.46224e-08
-4.44066e-07
-1.69054e-06
-7.03827e-07
-3.33891e-09
-1.14503e-06
-5.06368e-10
-1.00122e-06
-2.47585e-06
-1.95268e-09
-8.30698e-09
-3.29408e-10
-5.61991e-10
-3.7479e-09
-2.49317e-08
-1.81943e-09
-2.69051e-09
-8.42752e-10
-8.26453e-08
-4.96623e-06
-1.23747e-05
-3.16558e-06
-1.78637e-09
-2.43217e-09
-1.0206e-07
-1.27319e-05
-2.95895e-08
-2.39283e-09
-5.18931e-07
-2.56851e-07
3.52695e-08
-2.73503e-07
-1.53961e-06
-5.74481e-07
-2.06219e-07
3.2661e-07
-1.4565e-06
-2.03719e-07
3.89793e-07
-6.13069e-07
-8.69352e-07
-5.97125e-09
-2.91291e-07
-3.2177e-08
-4.67294e-07
6.54186e-09
1.68737e-07
1.97747e-06
-8.71188e-07
-3.9064e-06
-1.5838e-09
-2.39652e-07
-2.43847e-06
2.26179e-10
-2.91009e-08
4.57475e-08
-2.81971e-08
-1.05831e-07
-3.34448e-09
-7.87209e-08
9.78037e-09
4.79083e-07
1.95916e-06
-6.64936e-09
-1.47801e-06
-2.72286e-07
-1.52724e-07
-2.36687e-10
-1.42959e-07
1.14828e-09
-4.18434e-09
-6.11153e-09
-7.81281e-10
-2.1034e-08
-5.01482e-09
-7.47688e-10
-8.06259e-08
1.31138e-10
-4.41919e-08
1.17016e-09
-7.4257e-10
-4.96027e-09
-3.37485e-10
-5.25153e-10
-6.48115e-10
-2.93972e-09
-2.37224e-10
-5.61221e-08
-4.41771e-10
-2.40586e-09
-8.26438e-07
-3.79256e-06
-1.63526e-06
-4.27551e-07
-1.12248e-05
-3.28471e-06
-1.61459e-06
-3.30905e-08
0
0
-3.75867e-10
-3.04799e-10
-3.2589e-10
-9.63582e-10
0
-1.36334e-10
0
0
0
0
0
0
0
0
0
0
0
0
0
0
0
0
0
0
0
0
0
0
0
0
0
0
-4.00906e-10
0
0
0
0
0
0
0
0
0
0
0
0
0
0
0
0
0
0
0
0
-1.25037e-10
0
0
0
0
-2.26311e-10
0
0
0
0
0
0
0
0
0
0
0
0
0
0
0
0
0
0
0
0
0
0
0
0
0
0
0
0
0
0
0
0
0
0
0
0
0
0
0
0
0
0
0
0
0
0
0
0
0
0
0
0
0
0
0
0
0
0
0
-1.18062e-10
-6.08885e-10
0
0
0
0
0
0
1.86377e-10
0
1.21345e-10
1.27874e-10
-1.77198e-09
-2.78815e-09
-1.59778e-10
-6.46964e-09
-2.33183e-09
-8.79975e-09
-1.05173e-09
-1.02097e-10
1.40556e-10
4.49168e-10
-1.07655e-07
-2.1555e-07
-5.44372e-08
-9.55707e-08
-3.41415e-09
-1.08401e-07
-3.11961e-08
-4.8724e-10
-2.15136e-10
-4.63804e-10
-1.91787e-07
-4.82704e-07
-4.1025e-07
-7.71735e-07
-1.98132e-06
-1.81123e-06
-3.20263e-06
0
6.92906e-10
-3.49558e-06
-4.86538e-06
1.01339e-10
-7.91574e-07
5.91092e-09
1.46602e-10
-1.32376e-10
-1.86964e-06
-1.66658e-07
-5.24714e-07
3.09668e-08
-5.01495e-10
7.70147e-10
-1.41756e-07
2.28098e-09
-3.21287e-09
-7.32777e-08
4.41899e-09
-1.29538e-10
0
0
0
-1.02629e-08
4.95568e-08
-5.37479e-06
4.72831e-07
1.123e-10
-1.16587e-10
-7.6855e-08
-1.46074e-07
-2.30886e-07
-3.51923e-06
-2.83982e-07
2.25938e-10
-1.04087e-07
9.23011e-07
-2.7143e-08
-1.4031e-08
9.10451e-09
-6.81529e-09
1.68967e-09
2.38654e-09
0
5.26315e-07
-9.12152e-06
3.56234e-10
3.84843e-10
0
1.59452e-10
-3.60612e-09
-9.90365e-09
-1.31761e-09
-1.02017e-08
-5.06908e-07
-1.71947e-09
-5.60761e-10
-3.04766e-10
1.14322e-08
-7.35788e-10
1.17607e-09
0
2.06674e-08
3.07691e-09
9.4395e-10
1.62161e-09
3.28287e-08
-1.3748e-07
-2.12701e-05
-3.63315e-07
-1.52363e-07
-5.24931e-07
-1.17612e-08
-1.10874e-07
5.55923e-08
-2.25358e-08
-4.53472e-08
-6.49336e-08
-1.97015e-08
1.38984e-07
1.98967e-08
2.52153e-09
-1.7445e-08
-2.87398e-08
6.38339e-08
-4.72219e-09
-5.95079e-08
-7.4868e-10
2.47647e-08
-4.88883e-08
5.37732e-10
4.88269e-08
-2.40396e-09
1.06989e-09
-3.40292e-06
-2.4002e-06
0
0
0
0
0
0
0
0
0
0
0
0
0
0
0
0
0
0
0
0
0
0
0
0
0
0
0
0
0
0
0
0
0
0
1.37778e-10
0
0
0
0
-2.85549e-10
0
0
0
0
0
0
0
0
0
0
0
0
0
0
0
0
0
0
0
0
0
0
0
0
0
0
0
0
0
0
0
0
0
0
0
0
0
0
0
0
0
0
0
0
0
0
0
0
0
0
-2.62375e-10
0
0
0
0
-5.08132e-10
0
0
0
0
0
0
0
0
0
0
0
4.35487e-10
0
0
0
0
0
0
0
0
0
0
0
0
0
0
0
0
0
0
0
0
-2.74599e-06
-4.79331e-07
2.05554e-07
-1.82623e-07
3.81724e-07
-3.66728e-07
6.50987e-07
-6.39011e-07
6.59176e-07
1.74862e-07
3.02148e-08
2.47012e-07
-7.84986e-06
-1.23818e-06
-8.36576e-08
-2.2529e-07
-3.199e-06
-1.81521e-06
-6.88574e-07
-4.07951e-07
-1.71743e-06
-1.01228e-06
9.19217e-07
1.70977e-06
-1.45275e-06
-3.14604e-06
1.43553e-06
2.39444e-06
-3.6297e-06
2.51565e-06
1.91174e-06
-1.33329e-06
-1.72445e-06
-6.82693e-08
-2.84775e-08
-1.76075e-05
-2.13332e-05
-6.72443e-08
-4.00865e-07
4.2415e-08
-2.95722e-05
-7.52052e-05
-1.28515e-06
3.73587e-07
-0.000132741
2.71105e-07
-5.13582e-05
-1.4045e-05
-1.90785e-06
1.80054e-06
3.24285e-08
7.71275e-08
2.46338e-06
6.59575e-08
-1.68652e-05
-6.2435e-06
4.47203e-08
4.70286e-07
-8.89484e-06
7.27121e-09
-2.03226e-05
-3.35404e-08
2.48607e-06
-2.10321e-07
-5.11947e-05
-1.10374e-06
-6.46102e-07
-4.01042e-06
-1.04911e-05
-2.31617e-06
-9.59897e-08
1.14877e-06
-7.55764e-06
-2.53276e-05
3.78372e-06
1.83556e-07
1.48116e-06
-5.72348e-05
2.83902e-08
-2.2803e-08
8.68379e-07
-8.89093e-08
-0.000131921
-1.57736e-07
-1.89372e-05
-3.02231e-06
1.00947e-06
9.09003e-07
-2.99463e-07
-1.00038e-05
-1.90222e-05
4.98662e-10
1.177e-06
-4.02641e-05
1.29939e-08
-3.85214e-06
6.38937e-08
4.64631e-05
-7.54257e-10
-8.27337e-05
-8.28313e-07
-8.63135e-06
1.38459e-08
-2.07669e-05
-2.17927e-05
-6.86804e-06
2.533e-07
-1.128e-05
-7.69038e-06
-7.70826e-06
-1.51985e-08
-4.61412e-05
-2.32833e-08
-2.68027e-05
3.02522e-09
-6.393e-06
-8.70247e-09
-5.15669e-06
-1.81149e-09
-2.96789e-06
1.27273e-09
-3.94512e-05
-3.59859e-09
2.91953e-07
-1.76806e-05
-5.44859e-08
-5.34513e-07
-1.04443e-06
0
0
0
0
1.10755e-10
0
0
3.6372e-09
6.0005e-09
-3.02733e-09
-2.10866e-10
-7.83098e-09
-2.92982e-09
-3.41886e-09
-6.12515e-09
-6.48683e-08
8.8568e-08
-1.4697e-07
-5.9076e-08
-4.14018e-08
2.80499e-08
-6.43314e-10
1.39764e-09
0
-1.00403e-09
3.55919e-10
-3.38344e-10
0
0
-1.59625e-10
-3.25071e-10
-4.75736e-10
0
9.09513e-10
-5.26389e-10
-5.75184e-10
0
1.5959e-09
0
-2.23848e-09
7.01246e-10
6.16623e-10
4.91231e-08
-1.69018e-06
0
-7.08266e-09
-7.19844e-10
-1.60101e-10
0
-1.01823e-10
0
-1.22078e-07
1.20456e-10
1.19548e-09
-9.18357e-10
-5.12805e-09
2.39471e-09
1.59543e-08
-4.23331e-07
-2.36632e-07
-1.22306e-06
-2.04321e-07
-1.06026e-07
1.0921e-08
-2.97103e-08
8.21497e-08
0
5.23904e-10
-1.98497e-08
0
-1.36856e-07
-5.85072e-08
0
-6.42616e-08
6.98731e-09
1.32074e-07
6.44105e-08
4.00323e-10
0
2.87984e-10
-1.2478e-09
-3.56908e-10
2.13626e-08
-1.08545e-10
-4.89032e-07
1.46796e-10
-5.97214e-09
0
-2.78336e-07
1.3482e-10
-2.43237e-10
-2.49497e-10
1.51574e-10
1.06497e-10
2.37937e-10
-1.65616e-10
-1.78059e-10
-9.65763e-07
0
3.08485e-10
-1.4832e-06
-1.18663e-10
1.65181e-10
2.63828e-10
-3.69063e-06
0
0
-9.16534e-07
-6.07509e-10
-7.43126e-08
-2.36915e-07
0
-4.83881e-09
0
5.16649e-09
0
1.90363e-08
0
-7.28221e-09
2.47725e-08
-3.77891e-07
6.55785e-10
0
3.76433e-09
-2.42454e-10
0
0
-1.62561e-09
3.5858
3.89137
3.94161
3.64717
4.18256
4.1369
4.32909
4.3698
2.92872
3.19989
0.00110092
0.00166107
0.00739318
4.52853
4.35713
3.88005
4.21151
3.43663
4.09163
3.71944
2.86301
0.0274196
0.0521974
0.00353513
0.638271
0.0118487
-0.060069
3.24525
2.69295
1.29722
2.14486
0.46843
1.56581
-0.0105253
-0.0082756
0.00294895
2.15036
4.64042
0.00197789
1.32601