# vtk DataFile Version 2.0
Unstructured Grid by M++
ASCII
DATASET UNSTRUCTURED_GRID
POINTS 4225 float
  0.890625   0.781250 0
  0.906250   0.765625 0
  0.968750   0.765625 0
  0.984375   0.781250 0
  0.968750   0.937500 0
  0.937500   0.906250 0
  0.968750   0.906250 0
  0.953125   0.890625 0
  0.953125   0.859375 0
  0.937500   0.875000 0
  0.953125   0.968750 0
  0.937500   0.937500 0
  0.890625   0.859375 0
  0.968750   0.968750 0
  1.000000   0.765625 0
  0.968750   0.953125 0
  0.953125   0.921875 0
  0.906250   0.843750 0
  0.968750   0.984375 0
  0.953125   0.953125 0
  0.906250   0.875000 0
  0.968750   0.859375 0
  0.937500   0.828125 0
  0.968750   0.875000 0
  0.953125   0.843750 0
  0.937500   0.843750 0
  0.953125   0.812500 0
  0.937500   0.953125 0
  0.953125   0.781250 0
  0.953125   1.000000 0
  1.000000   0.828125 0
  1.000000   0.859375 0
  0.906250   0.953125 0
  0.968750   1.000000 0
  1.000000   0.796875 0
  0.937500   0.796875 0
  0.937500   0.765625 0
  0.984375   0.875000 0
  0.890625   0.968750 0
  0.953125   0.984375 0
  0.906250   0.906250 0
  0.937500   0.984375 0
  0.984375   0.812500 0
  0.906250   0.937500 0
  0.984375   0.843750 0
  0.890625   0.937500 0
  0.906250   0.968750 0
  0.937500   1.000000 0
  0.968750   0.796875 0
  0.890625   0.921875 0
  0.968750   0.828125 0
  0.890625   0.953125 0
  0.937500   0.968750 0
  0.890625   0.890625 0
  1.000000   0.937500 0
  0.984375   0.921875 0
  0.890625   1.000000 0
  1.000000   0.906250 0
  1.000000   0.890625 0
  0.906250   0.984375 0
  0.984375   0.890625 0
  1.000000   0.953125 0
  0.984375   0.953125 0
  1.000000   0.968750 0
  0.984375   0.968750 0
  1.000000   1.000000 0
  0.984375   1.000000 0
  0.984375   0.984375 0
  1.000000   0.984375 0
  0.921875   0.812500 0
  0.906250   0.812500 0
  0.906250   0.796875 0
  0.921875   0.781250 0
  0.890625   0.812500 0
  0.890625   0.828125 0
  0.906250   0.828125 0
  0.890625   0.796875 0
  0.890625   0.984375 0
  0.906250   1.000000 0
  0.921875   0.828125 0
  0.921875   0.843750 0
  0.921875   0.859375 0
  0.921875   0.953125 0
  0.921875   0.968750 0
  0.921875   1.000000 0
  0.921875   0.984375 0
  0.921875   0.890625 0
  0.921875   0.921875 0
  1.000000   0.656250 0
  0.984375   0.640625 0
  0.984375   0.671875 0
  1.000000   0.687500 0
  0.906250   0.734375 0
  0.984375   0.609375 0
  1.000000   0.625000 0
  1.000000   0.593750 0
  1.000000   0.609375 0
  0.906250   0.703125 0
  0.984375   0.578125 0
  0.968750   0.734375 0
  1.000000   0.578125 0
  0.906250   0.671875 0
  0.953125   0.750000 0
  0.968750   0.703125 0
  0.968750   0.687500 0
  0.937500   0.656250 0
  0.968750   0.656250 0
  0.953125   0.640625 0
  0.890625   0.750000 0
  0.968750   0.625000 0
  0.937500   0.734375 0
  0.984375   0.562500 0
  0.890625   0.656250 0
  0.937500   0.687500 0
  0.890625   0.609375 0
  0.937500   0.703125 0
  0.984375   0.531250 0
  0.906250   0.656250 0
  0.953125   0.703125 0
  0.906250   0.625000 0
  0.953125   0.671875 0
  0.906250   0.593750 0
  0.937500   0.625000 0
  0.953125   0.531250 0
  0.937500   0.531250 0
  0.953125   0.562500 0
  0.937500   0.562500 0
  0.937500   0.593750 0
  0.953125   0.718750 0
  1.000000   0.546875 0
  0.968750   0.718750 0
  0.953125   0.687500 0
  1.000000   0.515625 0
  0.968750   0.546875 0
  0.890625   0.640625 0
  0.968750   0.515625 0
  0.984375   0.593750 0
  0.890625   0.687500 0
  0.968750   0.562500 0
  0.937500   0.515625 0
  0.937500   0.546875 0
  0.890625   0.718750 0
  0.968750   0.593750 0
  0.968750   0.578125 0
  0.953125   0.546875 0
  0.953125   0.578125 0
  0.953125   0.609375 0
  0.984375   0.703125 0
  1.000000   0.718750 0
  0.984375   0.718750 0
  1.000000   0.750000 0
  0.984375   0.750000 0
  0.984375   0.734375 0
  1.000000   0.734375 0
  0.921875   0.546875 0
  0.906250   0.562500 0
  0.906250   0.531250 0
  0.921875   0.531250 0
  0.921875   0.515625 0
  0.906250   0.515625 0
  0.921875   0.578125 0
  0.921875   0.609375 0
  0.921875   0.687500 0
  0.921875   0.718750 0
  0.921875   0.750000 0
  0.921875   0.640625 0
  0.921875   0.671875 0
  0.890625   0.578125 0
  0.890625   0.546875 0
  0.890625   0.515625 0
  0.828125   0.796875 0
  0.875000   0.843750 0
  0.859375   0.828125 0
  0.781250   0.953125 0
  0.843750   0.843750 0
  0.765625   0.968750 0
  0.859375   0.890625 0
  1.000000   0.921875 0
  0.765625   0.984375 0
  0.859375   0.859375 0
  0.781250   0.984375 0
  0.875000   0.875000 0
  0.875000   0.906250 0
  0.781250   1.000000 0
  0.843750   0.875000 0
  0.765625   1.000000 0
  0.843750   0.906250 0
  0.875000   0.921875 0
  0.859375   0.921875 0
  0.875000   0.984375 0
  0.796875   0.984375 0
  1.000000   0.875000 0
  0.765625   0.937500 0
  0.843750   0.812500 0
  0.875000   0.953125 0
  0.796875   0.953125 0
  0.781250   0.921875 0
  0.859375   0.796875 0
  0.843750   0.921875 0
  0.859375   0.953125 0
  0.812500   0.984375 0
  0.843750   0.781250 0
  1.000000   0.843750 0
  0.765625   0.906250 0
  0.812500   0.953125 0
  0.859375   0.781250 0
  1.000000   0.812500 0
  0.765625   0.875000 0
  0.828125   0.953125 0
  1.000000   0.781250 0
  0.765625   0.843750 0
  0.828125   0.968750 0
  0.843750   1.000000 0
  0.859375   0.765625 0
  0.875000   0.796875 0
  0.781250   0.890625 0
  0.828125   0.937500 0
  0.843750   0.968750 0
  0.875000   0.765625 0
  0.781250   0.859375 0
  0.812500   0.781250 0
  0.781250   0.968750 0
  0.859375   0.968750 0
  0.812500   1.000000 0
  0.828125   0.765625 0
  0.875000   0.812500 0
  0.843750   0.984375 0
  0.875000   0.781250 0
  0.812500   0.968750 0
  0.843750   0.765625 0
  0.875000   0.937500 0
  0.812500   0.812500 0
  0.781250   0.843750 0
  0.875000   0.968750 0
  0.859375   0.937500 0
  0.875000   1.000000 0
  0.859375   1.000000 0
  0.859375   0.984375 0
  0.843750   0.953125 0
  0.765625   0.953125 0
  0.828125   0.984375 0
  0.828125   1.000000 0
  0.812500   0.875000 0
  0.828125   0.890625 0
  0.812500   0.890625 0
  0.828125   0.906250 0
  0.812500   0.921875 0
  0.828125   0.859375 0
  0.812500   0.843750 0
  0.828125   0.828125 0
  0.765625   0.796875 0
  0.781250   0.781250 0
  0.781250   0.812500 0
  1.000000   0.703125 0
  0.765625   0.765625 0
  0.765625   0.828125 0
  0.796875   0.796875 0
  0.796875   0.765625 0
  0.796875   0.875000 0
  0.796875   0.859375 0
  0.796875   0.828125 0
  0.796875   0.906250 0
  0.796875   0.937500 0
  0.796875   0.968750 0
  0.796875   1.000000 0
  0.875000   0.593750 0
  0.781250   0.687500 0
  0.843750   0.593750 0
  0.859375   0.609375 0
  1.000000   0.640625 0
  0.765625   0.703125 0
  0.843750   0.609375 0
  1.000000   0.671875 0
  0.765625   0.734375 0
  0.875000   0.640625 0
  0.875000   0.625000 0
  0.781250   0.718750 0
  0.859375   0.625000 0
  0.781250   0.750000 0
  0.875000   0.671875 0
  0.843750   0.640625 0
  0.843750   0.750000 0
  0.875000   0.734375 0
  0.859375   0.750000 0
  0.859375   0.718750 0
  0.859375   0.687500 0
  0.843750   0.671875 0
  0.875000   0.703125 0
  0.859375   0.656250 0
  1.000000   0.531250 0
  0.765625   0.593750 0
  0.828125   0.734375 0
  0.765625   0.687500 0
  0.781250   0.703125 0
  0.859375   0.578125 0
  0.812500   0.750000 0
  0.796875   0.687500 0
  0.875000   0.562500 0
  0.796875   0.718750 0
  0.843750   0.734375 0
  0.875000   0.531250 0
  0.843750   0.703125 0
  0.812500   0.703125 0
  1.000000   0.562500 0
  0.765625   0.625000 0
  0.781250   0.671875 0
  0.812500   0.718750 0
  0.859375   0.546875 0
  0.859375   0.515625 0
  0.781250   0.640625 0
  0.781250   0.609375 0
  0.796875   0.734375 0
  0.843750   0.562500 0
  0.796875   0.703125 0
  0.812500   0.734375 0
  0.765625   0.656250 0
  0.843750   0.531250 0
  0.828125   0.515625 0
  0.812500   0.531250 0
  0.812500   0.562500 0
  0.828125   0.546875 0
  0.828125   0.687500 0
  0.828125   0.718750 0
  0.828125   0.625000 0
  0.812500   0.640625 0
  0.828125   0.656250 0
  0.812500   0.671875 0
  0.812500   0.609375 0
  0.828125   0.609375 0
  0.812500   0.593750 0
  0.828125   0.593750 0
  0.828125   0.578125 0
  0.812500   0.578125 0
  0.796875   0.625000 0
  0.796875   0.593750 0
  0.796875   0.578125 0
  0.796875   0.562500 0
  0.781250   0.578125 0
  0.781250   0.562500 0
  0.796875   0.656250 0
  0.796875   0.515625 0
  0.781250   0.531250 0
  0.796875   0.546875 0
  0.781250   0.546875 0
  0.828125   0.750000 0
  0.765625   0.515625 0
  0.765625   0.546875 0
  0.937500   0.750000 0
  0.703125   0.812500 0
  0.953125   0.937500 0
  0.718750   1.000000 0
  0.640625   1.000000 0
  0.953125   0.906250 0
  0.718750   0.968750 0
  0.640625   0.968750 0
  0.984375   0.828125 0
  0.750000   0.890625 0
  0.718750   0.921875 0
  0.953125   0.875000 0
  0.718750   0.937500 0
  0.984375   0.859375 0
  0.750000   0.921875 0
  0.734375   0.937500 0
  0.968750   0.843750 0
  0.734375   0.906250 0
  0.687500   0.921875 0
  0.640625   0.843750 0
  0.703125   0.937500 0
  0.656250   0.859375 0
  0.718750   0.953125 0
  0.937500   0.859375 0
  0.703125   0.921875 0
  0.718750   0.984375 0
  0.937500   0.890625 0
  0.703125   0.953125 0
  0.750000   0.781250 0
  0.703125   0.968750 0
  0.921875   0.875000 0
  0.687500   0.937500 0
  0.734375   0.765625 0
  0.656250   0.890625 0
  0.703125   1.000000 0
  0.921875   0.906250 0
  0.687500   0.968750 0
  0.734375   0.796875 0
  0.875000   0.828125 0
  0.640625   0.890625 0
  0.984375   0.796875 0
  0.750000   0.859375 0
  0.656250   1.000000 0
  0.968750   0.812500 0
  0.734375   0.875000 0
  0.890625   0.906250 0
  0.656250   0.968750 0
  0.968750   0.781250 0
  0.734375   0.843750 0
  0.750000   0.843750 0
  0.890625   0.875000 0
  0.656250   0.937500 0
  0.968750   0.750000 0
  0.734375   0.812500 0
  0.640625   0.984375 0
  0.953125   0.796875 0
  0.718750   0.859375 0
  0.875000   0.890625 0
  0.640625   0.953125 0
  0.953125   0.765625 0
  0.718750   0.828125 0
  0.687500   0.781250 0
  0.953125   0.828125 0
  0.718750   0.890625 0
  0.687500   0.953125 0
[...]
CELL_DATA 4096
SCALARS scalar_value float 1
LOOKUP_TABLE default
0.0833568
1.15247
1.23749
-0.00447846
-0.00191199
-0.00121586
0.113825
-0.0018383
0.0138331
0.703483
2.97262
1.05582
2.27005
3.07339
3.14649
2.35617
2.88268
2.98587
2.17143
2.06599
2.92158
0.0994037
1.94803
3.52773
3.66021
4.06337
0.854082
1.96643
1.269
0.124669
0.679854
3.68521
2.45408e-05
5.25046e-05
3.39497
6.79069e-05
2.22628
-0.000174041
3.74403
8.58788e-07
-0.000164298
0.000759284
0.00036807
2.77056
0.0619498
0.00363553
0.0423489
0.00258231
3.83525
0.0243107
0.00205213
2.05525
0.00044843
3.91541
0.000140008
3.44527
0.00652438
2.88222
0.000801945
1.39077
1.05016e-05
0.0715446
0.874248
2.9118
-2.55365e-05
0.0521148
0.651646
0.0333984
0.35114
-0.000248442
0.000374062
3.94612
-0.000134396
0.00188068
0.000268809
0.014825
0.0119416
4.03358
-0.00033344
-0.00126803
1.06448
3.4415
-1.66826e-05
-0.000527523
0.000652457
3.24201
0.00033942
2.17712
0.000109969
0.974357
1.82345
0.763433
1.53301
0.527483
0.141407
0.0640563
-0.00379959
-0.00157517
-0.00402958
9.3068e-06
-1.2674e-05
3.67885
0.000310852
0.000293598
3.58448
0.00155535
0.00225298
0.000541108
0.000418953
0.00312427
0.000705887
0.00399638
0.000643594
1.95058
2.54137
0.000176525
2.66119
1.69246
9.85874e-05
2.33741
-0.00738223
-8.12438e-05
-0.0207833
0.376701
-0.00181348
3.92478e-05
-0.000518521
1.32492e-06
-5.84687e-07
-2.68264e-06
-9.98052e-08
-1.24397e-07
5.58715e-06
-7.75528e-06
3.74182e-07
2.76932e-07
-2.17306e-07
1.29775e-07
-2.60018e-06
1.44977e-06
-7.57273e-08
1.07308e-06
3.02655e-07
1.38101e-07
-1.26293e-07
3.72066e-06
-6.7382e-06
4.95541e-06
3.0274e-07
-5.89996e-08
5.9639e-08
1.94274e-08
-4.95887e-08
1.53291e-07
3.32678e-05
-4.71221e-05
-2.03588e-07
-1.18351e-05
1.53312e-05
3.36883e-08
-1.27883e-05
-3.76198e-07
-6.73392e-08
-4.66111e-07
-8.32035e-07
1.12212e-07
-4.78211e-06
0.000439235
-2.22731e-05
-6.0248e-05
-7.90621e-06
2.04096e-07
-4.156e-07
-5.23596e-07
4.69753e-07
1.2936e-06
-2.29463e-07
1.24229e-07
0.000208572
-5.30851e-08
1.90127e-07
-0.000117716
-8.01556e-07
-7.57051e-06
0.000101064
1.73936e-05
-2.57887e-06
7.87263e-07
-6.3977e-07
-2.1622e-07
2.25206e-06
-7.85178e-07
3.62068e-08
2.18193e-07
-0.000113705
-0.000153832
-3.2252e-05
8.00822e-08
-1.91095e-07
1.55875e-06
-0.000275844
-1.15738e-07
-9.37578e-07
0.000141103
-2.70227e-06
0.000224909
2.57572e-05
3.68958e-06
-1.9494e-06
-1.24026e-07
-3.09717e-07
-1.01141e-06
-0.00037598
-2.08776e-05
5.09312e-08
-2.90643e-07
-1.81214e-07
0.000236722
-0.000993104
-7.24855e-08
2.73998e-05
1.6732e-05
-2.30802e-07
-3.07068e-07
-6.0729e-08
7.79239e-07
-1.79694e-06
6.63387e-06
9.19582e-07
1.03717e-05
7.72916e-05
5.10152e-05
0.000122669
-7.88949e-06
-1.88121e-06
-1.72375e-05
4.8129e-07
-5.93006e-05
1.31203e-06
1.06428e-06
-5.8865e-08
2.33447e-06
-1.05237e-05
7.27135e-06
-1.66759e-05
7.33846e-06
5.24341e-05
1.53027e-08
-2.99245e-06
4.56891e-08
-7.48391e-06
3.63476e-06
5.09262e-08
-5.1435e-06
-9.67272e-08
1.19936e-05
3.50674
3.17515
1.72794
2.06857
-0.00400058
-0.00292982
-0.000565599
0.274167
-0.00824041
-0.0218521
0.386789
3.97648
4.20622
4.43944
4.59667
4.40746
4.53462
4.54781
4.61842
4.43678
1.3378
2.65407
1.64887
0.305935
3.01062
3.61563
4.2177
3.92625
-0.00282919
0.000982263
-0.000750163
0.000526254
-0.00283475
-0.00480279
0.299084
3.57636
3.09925
4.14621
4.60806
4.48643
-0.0476549
3.86946
4.6511
-2.83619e-06
0.816889
4.62199
3.84206
4.55368
-0.0041716
-0.0572763
3.18748
1.78161
4.13026
3.66972
4.49496
3.74797
4.50245
4.39851
1.81478
4.37877
3.76271
4.59453
4.63179
2.80152
4.23944
4.63049
4.29313
4.5385
4.64664
2.652
0.000426435
2.13327
3.83157
4.53806
4.63151
4.56998
1.50786
3.74258
2.94747
0.0170311
4.29241
2.00975
-0.00701269
3.97185
4.61276
0.846766
0.00435599
0.387549
3.18169
0.674491
-0.00797682
1.35748
4.2828
2.63427
-0.026192
-0.010182
0.526947
0.0465198
0.00409811
-0.00192338
0.000759946
4.64038
4.29113
4.40047
4.65111
4.45342
4.26104
4.22486
4.44024
4.28836
4.6398
4.03441
4.60849
4.14607
4.59897
4.38831
4.53132
4.02857
3.44293
4.64798
4.08332
3.58271
2.86593
1.16903
2.45097
2.06146
4.65039
3.00599
-1.29273e-07
1.43074e-08
1.02318e-08
-0.000365041
-0.00025484
-0.000294559
-5.21201e-05
-0.000211431
-0.000213688
-8.68583e-05
-1.43678e-05
8.0095e-07
-2.08273e-05
-2.7673e-05
-1.0234e-07
-2.12434e-07
1.96424e-09
-7.1398e-08
-4.38858e-07
-1.25221e-07
-8.93362e-08
-1.72075e-05
-1.1251e-05
-8.26674e-06
-1.29881e-05
5.51437e-06
-3.75908e-06
-1.44909e-06
2.45959e-05
0.00041203
-0.0002073
0.000221554
-0.000323307
-0.000197756
-4.00333e-07
-2.21363e-06
3.46553e-05
-4.15335e-05
1.6813e-06
-3.71905e-05
7.66475e-05
-1.29647e-07
-1.01163e-05
2.69347e-05
0.000617309
-0.000532884
-7.31571e-07
-3.1333e-07
4.20324e-06
-0.000482704
-2.10866e-07
-1.5359e-07
-1.20086e-06
-5.21353e-07
-4.81128e-05
-5.92264e-06
-2.91338e-06
3.27753e-05
-0.000968846
-0.00118952
5.4268e-08
-4.38517e-05
2.72079e-05
-1.89457e-05
-3.79705e-07
-3.40731e-07
-8.23637e-08
-1.38129e-07
-2.89039e-07
-4.93433e-07
-2.9928e-06
-3.50698e-07
-1.02136e-06
4.28403e-07
-2.21631e-05
-5.44575e-05
-0.00045064
-1.71344e-06
-0.000141806
-0.000335603
-2.40316e-05
-3.14428e-07
2.20065e-05
-1.67313e-05
2.77592e-07
-1.75579e-07
-4.70319e-06
-1.53143e-05
-4.59809e-07
3.46363e-07
-7.85384e-07
-4.36926e-06
1.15525e-06
-1.68753e-05
-5.0009e-05
-3.91242e-08
-2.8818e-08
-0.000155358
-0.000392298
-0.000201611
-4.49929e-06
-8.365e-05
-2.11224e-06
-2.54694e-06
-8.87799e-07
5.96747e-07
-1.28102e-06
-2.07136e-07
-3.45099e-07
-8.92126e-07
-1.37059e-07
5.06512e-08
-1.78577e-08
5.0523e-08
-1.11949e-07
-1.76455e-08
-7.17172e-08
-5.72285e-06
-1.66502e-07
-6.72815e-05
3.86947e-08
-9.49645e-07
-1.99146e-06
5.49986e-07
6.81242e-08
-3.63926e-06
-3.95488e-06
-3.68441e-05
1.17793e-06
1.2154e-05
-3.79795e-07
-2.73407e-05
-2.06403e-05
-9.34817e-06
0.00137919
0.00330952
0.000348824
-7.53042e-05
0.00831388
0.00621813
0.00494398
0.0155817
0.00303208
-0.0015645
0.0118146
0.00944267
0.0169652
0.0122355
0.0233103
0.0720258
-0.0557716
-0.0610141
-0.025791
0.0268863
0.00992592
1.28968
-0.0408114
2.27563
-0.0038516
0.488143
-0.00149664
0.00364284
0.0130463
0.00206029
-4.17215e-05
-4.35058e-07
-0.000200582
5.97356e-07
0.00128979
1.02404e-06
7.76237e-07
4.37277e-07
-0.000117209
2.07978e-08
-1.6097e-07
0.014926
0.00215396
0.00622116
-0.00015748
0.000879489
0.00918434
0.000497768
2.52668e-05
0.000269617
-0.0760123
-0.00420154
0.0561513
-0.00392259
-7.5576e-07
0.00410105
0.00144815
2.7227e-06
-0.000838107
-0.000650325
-0.0316937
0.00264371
-8.24119e-05
-7.35395e-05
0.003637
1.06619e-05
-0.00141845
0.000144856
-1.56614e-06
8.54471e-07
-0.0199307
-0.000997784
1.98142e-06
5.29284e-05
0.0122311
-0.000116063
-0.000353764
-7.81972e-05
1.68561e-05
-1.99451e-06
0.0032936
0.00236866
0.0630158
-0.00033043
-1.38634e-06
5.2102e-06
-9.84254e-07
-0.00244294
-4.44655e-06
4.179e-07
-0.0574548
7.97901e-05
-0.0102896
-0.00736346
-0.0118877
-0.00745928
-0.00550478
0.00881117
-1.64725e-05
0.000119617
-2.07057e-05
0.00769196
0.00013847
0.000613381
1.04158e-05
0.000373893
0.00142184
0.00080891
3.18369
3.84326
-0.00617275
0.27871
4.47719
0.0891217
-0.00309124
0.713462
0.463927
-0.0109842
4.25299
-0.0580816
0.00124197
-0.00148478
-6.28656e-10
4.12791e-10
4.84646e-09
-9.05733e-08
-7.27284e-08
-2.65791e-08
4.88945e-08
5.47105e-08
-5.66286e-07
8.86318e-08
-1.11178e-07
-2.0566e-07
-6.62552e-08
-3.26153e-07
-9.22488e-06
-1.64321e-08
-5.51746e-07
-8.74138e-07
-2.78771e-06
2.33299e-07
-4.84006e-05
6.77106e-06
-5.98862e-07
-8.66322e-07
-1.41926e-07
-2.35991e-05
-1.80498e-06
-1.08965e-06
-3.81699e-07
-5.35521e-07
2.67059e-08
-4.21155e-06
-8.80189e-05
-3.70049e-08
2.12607e-09
-9.71441e-08
-7.43221e-09
-1.09904e-07
1.91561e-08
-5.42515e-09
-3.66803e-08
2.61797e-10
-1.24847e-06
-1.42164e-07
1.80852e-08
-2.61003e-07
-1.17355e-07
-3.51637e-07
1.01576e-07
-7.99518e-06
-1.68964e-07
-7.4434e-08
8.05445e-09
-2.92139e-08
7.88898e-08
-1.35185e-06
2.21828e-07
-3.78881e-06
-4.69103e-07
6.5901e-08
2.48299e-09
-6.87605e-08
5.16817e-08
-6.95365e-06
-2.46127e-08
-1.403e-07
-2.80697e-08
-6.6542e-06
1.02073e-07
4.39551e-08
5.29948e-07
-1.39737e-08
2.71565e-07
-1.32653e-07
-7.57248e-09
4.93226e-09
-1.63371e-08
5.92968e-08
-4.83224e-07
-2.37119e-06
-1.12328e-07
-2.12393e-06
1.06109e-07
-6.42407e-07
-2.07e-08
1.63454e-09
1.16775e-08
-2.31353e-09
1.35657e-07
-9.03362e-09
-2.22167e-07
2.97469e-07
6.29283e-07
7.60483e-07
2.41149e-08
1.7177e-08
-3.10907e-07
3.94762e-09
-5.52258e-08
-9.58746e-09
-1.09047e-07
-1.51814e-07
-6.03838e-10
-2.44048e-08
-9.33501e-09
6.51285e-08
-5.615e-08
-1.05739e-07
5.60251e-08
-9.19317e-07
-0.000109451
8.52791e-05
-1.46283e-06
-0.000347643
-2.31924e-05
-7.50027e-06
-4.42349e-05
-0.000421594
-3.12046e-08
-1.22521e-05
-9.60734e-08
-2.0342e-06
1.80579e-07
2.71789e-06
2.79447e-07
-1.00985e-06
1.67172e-07
-1.33014e-05
-1.37346e-05
2.38177e-06
4.44069e-06
-7.40825e-06
-2.18949e-05
6.71176e-06
1.09514e-07
7.19709e-07
1.48108e-06
1.33245e-06
-1.70637e-06
-5.77412e-06
-1.34072e-06
-7.30319e-05
-4.32253e-05
-1.33909e-05
1.85067e-06
-0.000213894
-0.000112797
-0.000133271
-0.000128577
3.89111e-07
1.01199e-06
-0.000140313
0.000312432
0.00109269
0.000717324
-9.12608e-05
-0.000309783
-0.000201814
2.51441e-06
-7.23704e-05
-2.18111e-05
-8.96038e-05
-2.88528e-05
-2.02398e-07
-1.2103e-05
-8.28048e-05
-4.39443e-06
2.98567e-05
-9.24761e-05
-6.43056e-05
-3.25469e-05
-9.21577e-05
0.000197713
-0.000116963
-0.000203262
-4.80067e-05
-1.08437e-06
4.85872e-08
-1.71399e-05
-7.64174e-05
2.33312e-06
-3.2317e-06
-5.71769e-07
-2.71477e-05
-0.000152751
-0.000303006
-0.000124067
0.000153531
0.000110745
5.39161e-07
-8.30371e-07
-5.76743e-06
-1.07161e-05
-1.92401e-05
6.24824e-05
-5.17965e-05
-1.28969e-06
2.1732e-05
-0.0002267
4.36862e-06
-8.54169e-05
-4.91701e-05
-1.3153e-05
-2.25066e-05
9.23332e-06
-4.33854e-05
-2.41344e-05
1.05848e-06
-2.74978e-05
-3.01812e-05
-2.38247e-06
-3.07016e-05
-0.000239747
-0.000142378
-1.26285e-05
-2.25113e-05
-4.40594e-05
-4.81215e-05
1.50606e-06
-5.76508e-06
-3.35525e-05
0.000232569
0.000372321
0.00109109
9.0234e-06
-0.000147905
3.45996e-05
0.000835006
0.000919593
7.78866e-07
1.69511e-06
3.94568e-06
8.79906e-06
-9.36165e-06
5.82842e-06
-8.53163e-06
-4.59598e-05
6.24168e-07
-7.82649e-06
-2.0314e-06
-2.23221e-06
-1.43853e-06
-1.22529e-05
-1.26895e-06
-5.58484e-05
-2.58803e-06
-6.57754e-06
-7.00921e-06
-0.000115254
0.000148143
-0.000271289
-7.57302e-05
-3.70333e-05
0.000355166
5.82454e-05
-0.000282862
6.39754e-08
5.69171e-08
-2.48763e-08
-9.96447e-09
-5.40307e-08
4.19366e-08
4.44592e-09
-1.07408e-07
2.16301e-08
1.44635e-08
-1.21511e-08
-1.59409e-08
2.19073e-08
-2.16324e-08
-4.04126e-08
3.73496e-08
-2.33396e-08
1.18331e-07
1.84079e-07
1.53386e-08
1.35656e-07
-6.17292e-08
-3.71282e-07
-2.76583e-07
-3.36161e-08
-7.46157e-07
-6.49049e-07
-7.36761e-07
5.14279e-07
3.12931e-08
-3.1057e-05
1.40805e-08
-8.96118e-08
-2.11155e-05
0
3.57848e-10
-1.67234e-05
-7.92195e-09
-1.72117e-08
-4.90672e-06
3.88605e-08
-1.04733e-05
-3.91016e-08
-1.69228e-05
-4.05388e-08
-7.69267e-09
3.23828e-08
-1.00829e-05
2.94792e-08
3.70595e-09
-9.2287e-06
-4.07555e-09
-7.78461e-06
4.92976e-08
-2.82439e-06
5.74061e-08
7.74917e-08
-1.03704e-05
-6.0911e-08
-9.15514e-06
-4.39089e-08
-5.68899e-08
-1.68575e-07
-3.74453e-06
-9.17752e-06
-1.64711e-06
8.42945e-07
8.34092e-08
-1.954e-07
8.70891e-09
-5.95664e-07
-7.76455e-10
-1.83892e-06
-1.6132e-07
2.45932e-07
-5.73882e-07
1.46543e-06
-1.45017e-07
-5.09814e-07
-3.06982e-07
6.85383e-07
2.36161e-09
-1.3264e-06
-3.65474e-06
-5.4326e-09
-2.11188e-06
2.19163e-07
-3.97735e-06
-3.87367e-06
8.38607e-08
5.70997e-09
1.88564e-08
1.43686e-10
1.82207e-08
-4.01131e-07
8.04397e-09
-6.24354e-08
-1.02486e-07
6.22425e-07
2.67742e-07
-1.12182e-07
-7.25225e-06
2.80158e-08
-1.84498e-07
-7.4974e-09
-1.119e-05
-7.79158e-08
2.66777e-07
-1.52985e-05
1.29391e-07
5.12199e-07
-1.02276e-05
-2.56553e-07
-3.11965e-07
-2.24423e-05
-2.17678e-07
-6.52504e-07
3.02882e-08
-5.10377e-07
1.64633e-08
-4.93859e-07
-2.13997e-06
-1.31054e-08
-1.16297e-06
-4.24968e-09
8.46604e-08
5.35692e-07
2.60507e-07
-3.24854e-10
2.05091e-10
-9.206e-10
2.3755e-10
2.22468e-10
2.28132e-10
0
2.3843e-10
0
0
0
-1.01363e-10
0
0
-2.99682e-10
-9.84347e-10
9.22148e-09
1.30933e-09
6.02634e-09
-2.60375e-09
-2.69801e-09
-1.25891e-09
0
0
-1.3434e-10
0
0
0
3.1575e-10
0
-1.30547e-10
0
-1.25835e-10
-2.77078e-10
-3.31065e-08
3.22699e-08
0
-5.9498e-10
-1.70119e-08
-7.53827e-08
-3.01925e-10
0
-1.03504e-10
-8.18831e-09
-2.16189e-08
-2.22259e-08
1.34212e-08
1.82023e-08
-2.29217e-10
-1.929e-08
0
9.24994e-10
7.81697e-09
-4.63871e-10
-6.07489e-09
-3.81229e-09
4.334e-09
-4.73775e-10
-2.19915e-09
0
-1.99501e-10
2.46848e-10
-4.17225e-09
5.438e-09
-1.25493e-08
0
1.12574e-10
-1.74688e-09
-5.73348e-09
-9.73465e-10
-1.54635e-08
0
-3.83963e-10
-9.42916e-10
0
2.96984e-10
0
-3.18077e-10
-1.00874e-08
1.64467e-08
-2.80332e-08
2.74426e-10
-3.43158e-09
-4.58981e-10
-1.38453e-08
0
-3.81134e-10
-2.9165e-09
0
-1.02926e-09
0
0
-2.57567e-08
1.98994e-09
-6.66853e-09
3.31489e-09
-7.66727e-08
3.63281e-09
-1.1532e-09
1.93728e-09
-2.37059e-09
-1.86097e-08
-7.4379e-09
-7.34343e-09
-6.02416e-08
-6.99229e-08
-5.54323e-08
-1.19971e-08
-2.01361e-08
-1.54131e-08
-1.17015e-08
-1.68349e-08
2.70618e-08
-1.17368e-09
-2.07473e-09
-3.04047e-09
-3.38134e-10
-8.28501e-10
-4.9089e-10
-1.5575e-09
-4.56885e-09
-4.62201e-09
-2.77546e-09
-3.69853e-09
-1.92475e-08
-7.01381e-09
-2.14138e-08
4.03506e-09
0
0
0
0
0
0
0
0
0
0
0
0
0
0
0
0
0
0
0
0
0
0
0
0
0
0
0
0
0
0
0
0
0
0
0
0
0
0
0
0
0
0
0
0
0
0
0
0
0
0
0
0
0
0
0
0
0
0
0
0
0
0
0
0
0
0
0
0
0
0
0
0
0
0
0
0
0
0
0
0
0
0
0
0
0
0
0
0
0
0
0
0
0
0
0
0
0
0
0
0
0
0
0
0
0
0
0
0
0
0
0
0
0
0
0
0
0
0
0
0
0
0
0
0
0
0
0
0
-2.61795e-10
-4.27637e-10
-9.23327e-09
-3.35495e-09
-1.34862e-08
-6.83583e-10
-1.03845e-09
-2.3516e-09
-5.37798e-09
0
-5.06315e-09
0
0
0
0
-5.90622e-10
0
-1.12637e-10
-1.71159e-10
0
0
0
0
0
0
-9.72395e-10
-4.94198e-10
-1.35828e-09
-4.33706e-10
-2.76153e-09
-1.34943e-10
-3.2393e-09
-4.34414e-09
-8.51874e-10
-1.13249e-10
-4.94385e-09
0
-1.44259e-08
-2.02168e-08
0
-1.08618e-10
0
0
-1.86951e-10
0
0
0
0
-8.52918e-10
-5.19216e-08
2.5937e-09
2.04356e-08
0
0
-1.60245e-10
-5.93448e-08
0
0
0
-2.35752e-09
2.47468e-10
-3.64695e-10
-4.37687e-10
-6.81624e-09
1.15175e-08
-1.20754e-09
1.39266e-10
-7.19564e-10
-6.02197e-10
-2.26445e-09
-7.57252e-09
0
-2.06709e-09
-2.24002e-10
-1.31678e-09
-8.55153e-10
2.75498e-09
-4.21487e-09
1.07871e-09
-2.0048e-09
0
-9.30122e-10
-1.32427e-09
0
0
-1.45013e-10
0
-7.8638e-10
0
-7.45169e-10
5.72061e-10
-3.7905e-09
6.24837e-09
-3.30046e-10
-1.63684e-08
-1.65189e-09
-1.65106e-09
0
-1.0755e-09
0
0
0
0
-1.24419e-10
-2.26945e-10
0
-4.33141e-10
0
-5.3552e-10
0
0
0
0
0
0
0
0
-2.57902e-10
0
-1.73773e-08
2.90063e-10
-1.98781e-08
-5.16824e-09
2.17424e-09
1.23643e-08
-2.41811e-08
-8.61703e-08
-1.45199e-08
0
0
0
0
0
0
0
0
0
0
0
0
0
0
0
0
0
0
0
0
0
0
0
0
0
0
0
0
0
0
0
0
0
0
0
0
0
0
0
0
0
0
0
0
0
0
0
0
0
0
0
0
0
0
0
0
0
0
0
0
0
0
0
0
0
0
0
0
0
0
0
0
0
0
0
0
0
0
0
0
0
0
0
0
0
0
0
0
0
0
0
0
0
0
0
0
0
0
0
0
0
0
0
0
0
0
0
0
0
0
0
0
0
0
0
0
0
0
0
0
0
0
0
0
0
0
0
0
0
0
0
0
0
0
0
0
0
0
0
0
0
0
2.69799e-10
0
-3.25838e-10
3.5656e-10
0
0
0
0
0
0
-1.4459e-09
-2.16156e-09
-2.98372e-09
-4.94025e-09
-5.81009e-09
-8.87323e-09
-7.45827e-09
0
-2.65277e-10
-4.72423e-08
-2.93789e-08
0
-2.98272e-09
-8.94179e-10
0
0
-6.49237e-09
-1.1786e-09
-7.18219e-10
2.27086e-10
0
0
-2.30344e-09
0
0
-7.12107e-10
0
0
0
0
0
-1.7899e-10
8.68422e-10
-1.20458e-08
4.6413e-10
0
0
-7.26199e-10
-1.13716e-10
-1.21128e-09
-4.81077e-09
-4.86277e-10
0
-2.48076e-09
4.32004e-09
-3.88075e-10
0
0
0
0
0
0
2.4335e-09
-3.88736e-09
0
0
0
0
0
-1.79787e-10
0
0
2.35843e-09
0
0
0
2.36832e-10
0
0
0
1.65549e-10
0
0
0
2.5294e-10
-2.73395e-09
-1.69159e-08
-4.37493e-09
-1.57554e-09
-2.28961e-09
2.31718e-09
1.68286e-09
0
1.21604e-10
-4.0792e-10
-1.34046e-09
-2.04573e-10
5.9457e-10
2.28489e-10
0
-1.70836e-10
-3.30711e-10
3.44217e-10
0
0
0
0
-4.80314e-10
0
3.05191e-10
0
-1.47727e-10
-2.30631e-08
-4.78173e-08
0
0
0
0
0
0
0
0
0
0
0
0
0
0
0
0
0
0
0
0
0
0
0
0
0
0
0
0
0
0
0
0
0
0
0
0
0
0
0
0
0
0
0
0
0
0
0
0
0
0
0
0
0
0
0
0
0
0
0
0
0
0
0
0
0
0
0
0
0
0
0
0
0
0
0
0
0
0
0
0
0
0
0
0
0
0
0
0
0
0
0
0
0
0
0
0
0
0
0
0
0
0
0
0
0
0
0
0
0
0
0
0
0
0
0
0
0
0
0
0
0
0
0
0
0
0
0
0
-1.58693e-08
9.74654e-10
0
1.31354e-09
3.57189e-09
1.63629e-09
7.46416e-10
-3.2417e-09
1.38528e-09
-8.98001e-10
0
-2.19725e-09
-3.46734e-08
1.12188e-09
0
4.92801e-10
1.54037e-08
3.79291e-09
-4.51753e-09
-3.08985e-09
-6.17219e-09
-2.44865e-09
6.81098e-09
1.17961e-08
-2.56589e-09
-3.70713e-09
1.08867e-08
1.7328e-08
-1.09251e-08
1.09814e-08
6.39617e-09
-5.55528e-09
-1.24855e-08
-2.48821e-10
-2.35989e-10
-2.08835e-07
-2.71511e-08
-2.23729e-10
-2.49375e-10
8.12518e-10
-1.05501e-06
-2.24354e-07
-9.11598e-08
7.16792e-10
6.0189e-09
2.21004e-09
-1.39236e-08
4.54832e-08
-2.07751e-08
-4.52609e-07
3.06774e-10
0
-6.77838e-09
9.71064e-10
9.26563e-09
-4.36143e-09
5.67881e-10
5.51245e-08
4.4137e-08
2.55625e-10
-2.52892e-08
-3.44502e-10
-1.975e-08
-1.35232e-09
-4.07645e-08
2.39458e-08
5.41766e-09
-4.55702e-08
-2.26669e-08
5.60781e-09
0
4.43177e-08
-3.49224e-08
-2.33526e-08
3.77858e-08
1.79837e-10
3.06153e-08
1.1057e-07
0
0
4.41935e-09
-6.47576e-10
3.52649e-07
-1.0545e-09
7.02177e-08
-9.94872e-09
8.50042e-09
1.3768e-08
-6.61742e-09
-4.18032e-09
3.25623e-08
0
2.62712e-08
9.43934e-08
0
-8.06241e-09
0
-4.8821e-07
-2.48608e-10
7.12687e-08
-1.7806e-09
-4.48687e-08
1.64947e-10
-5.90619e-08
-1.61955e-08
-2.75222e-08
3.08988e-09
-1.67611e-07
3.81923e-08
9.88129e-09
0
1.09113e-07
-5.2174e-10
-1.62302e-07
0
-6.71119e-09
0
2.7686e-08
0
7.80502e-09
0
4.93276e-09
0
2.93357e-09
1.02871e-08
-1.28545e-09
-2.21008e-09
-2.45183e-09
0
0
0
0
0
0
0
0
0
0
0
0
0
0
0
-1.37326e-10
1.12522e-10
-1.46106e-10
0
0
0
0
0
0
0
0
0
0
0
0
0
0
0
0
0
0
0
0
0
0
0
0
1.14147e-10
-2.12183e-09
0
0
0
0
0
0
0
-6.92684e-10
0
0
0
0
0
0
-3.3266e-09
-3.86328e-10
-4.0321e-09
-2.25495e-09
-3.95822e-10
2.16253e-10
-1.57396e-10
9.16551e-10
0
0
3.15403e-09
0
-4.19327e-10
-5.20748e-10
0
-1.53376e-10
0
4.42661e-10
2.89447e-10
0
0
0
0
0
1.71137e-10
0
5.18116e-10
0
0
0
9.85062e-10
0
0
0
0
0
0
0
0
4.52193e-09
0
0
-2.62409e-10
0
0
0
-1.62114e-09
0
0
3.37904e-09
0
2.68904e-10
5.35437e-10
0
0
0
0
0
1.84817e-10
0
0
0
6.14672e-10
0
0
0
0
0
0
0
2.83997e-06
-6.664e-06
2.34477e-05
-2.48986e-06
-3.58547e-06
8.72416e-06
2.06356e-06
-5.15692e-05
-1.97337e-06
-5.62585e-06
2.50711e-07
-5.36236e-07
5.30682e-07
3.98505e-05
-3.7768e-05
1.17757e-06
-1.66778e-05
1.8576e-06
-1.6888e-05
2.03092e-05
2.02035e-06
-4.90658e-07
1.77959e-06
5.73717e-07
-7.062e-07
1.0661e-06
1.20264e-06
1.14752e-06
-2.80922e-06
1.59288e-06
2.75841e-06
-2.12505e-07
1.89016e-06
-1.38501e-06
-5.40227e-08
2.23406e-07
-1.08978e-06
-0.000176815
-7.78561e-08
-2.00436e-06
-1.93168e-05
-5.96628e-07
-9.36359e-05
-7.03488e-06
8.66393e-06
6.24281e-06
-1.48705e-06
-5.20453e-06
-3.16059e-06
1.04269e-06
9.5604e-07
1.38638e-07
6.78017e-09
-7.21703e-07
4.49728e-05
3.8449e-07
-2.80585e-06
-1.12075e-05
-1.63134e-06
-2.36506e-06
-7.8204e-05
5.50217e-05
-1.54269e-07
-7.29337e-06
-4.20432e-06
-7.13309e-06
3.26794e-06
4.10223e-06
-1.67658e-06
-1.50763e-06
-7.96434e-07
3.50861e-06
-5.34352e-06
-0.00136158
-2.97034e-05
-1.33159e-05
-1.09773e-05
6.15226e-06
-6.50675e-06
7.3133e-07
-8.30266e-06
2.88715e-06
-0.000871129
-1.97708e-06
-0.000357332
1.06519e-07
-7.3519e-07
-2.95394e-08
5.68185e-06
-0.00376721
5.46647e-07
6.43893e-07
4.34835e-07
-6.63425e-07
-0.000360665
3.74277e-06
-4.38937e-07
-1.31149e-05
2.54338e-06
-7.55103e-06
1.35906e-05
-2.16286e-06
-1.90434e-06
5.20369e-06
-2.39571e-06
2.50624e-07
1.28848e-06
-3.18491e-06
-2.39866e-07
-5.69173e-07
6.32876e-06
-3.59494e-06
-8.48947e-08
-7.09418e-06
-1.96045e-06
1.16353e-07
1.39303e-06
-1.57324e-07
3.18601e-07
-3.06073e-08
3.14442e-06
4.80425e-06
-8.73614e-07
-2.8656e-05
-1.37559e-06
1.20989e-06
-2.80327e-08
-2.28741e-08
-2.33777e-07
-1.25463e-06
-3.49787e-06
-7.13431e-08
-7.83382e-06
-4.34596e-06
-2.30701e-06
-3.83419e-06
-1.34535e-05
-6.63887e-07
2.23292e-06
2.39031e-07
3.90297e-07
8.55334e-07
8.82285e-07
-8.03071e-07
-3.88114e-07
2.59188e-07
1.44737e-07
5.86499e-09
-4.52058e-07
-2.51771e-07
-1.62989e-07
-2.70384e-07
-6.34259e-07
-2.87777e-07
-5.80314e-07