# vtk DataFile Version 2.0
Unstructured Grid by M++
ASCII
DATASET UNSTRUCTURED_GRID
POINTS 289 float
  1.000000   0.937500 0
  1.000000   1.000000 0
  0.937500   0.937500 0
  0.937500   0.875000 0
  1.000000   0.812500 0
  0.937500   0.812500 0
  1.000000   0.687500 0
  1.000000   0.750000 0
  0.937500   0.687500 0
  0.937500   0.750000 0
  0.937500   0.625000 0
  1.000000   0.625000 0
  1.000000   0.562500 0
  0.937500   0.562500 0
  0.812500   0.875000 0
  0.812500   1.000000 0
  0.812500   0.937500 0
  0.875000   0.875000 0
  0.875000   0.937500 0
  0.875000   1.000000 0
  0.812500   0.812500 0
  0.875000   0.812500 0
  0.812500   0.750000 0
  0.812500   0.625000 0
  0.812500   0.687500 0
  0.875000   0.625000 0
  0.875000   0.687500 0
  0.875000   0.750000 0
  0.812500   0.562500 0
  0.875000   0.562500 0
  0.750000   0.937500 0
  0.750000   1.000000 0
  0.687500   0.937500 0
  0.687500   1.000000 0
  0.687500   0.875000 0
  0.750000   0.875000 0
  0.750000   0.812500 0
  0.687500   0.812500 0
  0.750000   0.687500 0
  0.750000   0.750000 0
  0.687500   0.687500 0
  0.687500   0.750000 0
  0.687500   0.625000 0
  0.750000   0.625000 0
  0.750000   0.562500 0
  0.687500   0.562500 0
  0.562500   0.875000 0
  0.562500   1.000000 0
  0.562500   0.937500 0
  0.625000   0.875000 0
  0.625000   0.937500 0
  0.625000   1.000000 0
  0.562500   0.812500 0
  0.625000   0.812500 0
  0.562500   0.625000 0
  0.562500   0.750000 0
  0.562500   0.687500 0
  0.625000   0.625000 0
  0.625000   0.687500 0
  0.625000   0.750000 0
  0.562500   0.562500 0
  0.625000   0.562500 0
  1.000000   0.437500 0
  1.000000   0.500000 0
  0.937500   0.437500 0
  0.937500   0.500000 0
  0.937500   0.375000 0
  1.000000   0.375000 0
  1.000000   0.312500 0
  0.937500   0.312500 0
  0.812500   0.375000 0
  0.812500   0.500000 0
  0.812500   0.437500 0
  0.875000   0.375000 0
  0.875000   0.437500 0
  0.875000   0.500000 0
  0.812500   0.312500 0
  0.875000   0.312500 0
  0.812500   0.125000 0
  0.812500   0.250000 0
  0.812500   0.187500 0
  0.812500   0.000000 0
  0.812500   0.062500 0
  0.750000   0.437500 0
  0.750000   0.500000 0
  0.687500   0.437500 0
  0.687500   0.500000 0
  0.687500   0.375000 0
  0.750000   0.375000 0
  0.750000   0.312500 0
  0.687500   0.312500 0
  0.750000   0.187500 0
  0.750000   0.250000 0
  0.687500   0.187500 0
  0.687500   0.250000 0
  0.687500   0.125000 0
  0.750000   0.125000 0
  0.750000   0.000000 0
  0.750000   0.062500 0
  0.687500   0.062500 0
  0.687500   0.000000 0
  0.562500   0.500000 0
  0.562500   0.375000 0
  0.562500   0.437500 0
  0.625000   0.375000 0
  0.625000   0.437500 0
  0.437500   0.375000 0
  0.250000   0.562500 0
  0.500000   0.187500 0
  0.437500   0.187500 0
  0.437500   0.125000 0
  0.312500   1.000000 0
  0.500000   0.125000 0
  0.312500   0.312500 0
  0.500000   0.000000 0
  0.375000   0.875000 0
  0.500000   0.062500 0
  0.437500   0.062500 0
  0.250000   0.250000 0
  0.437500   0.000000 0
  0.312500   0.875000 0
  0.375000   0.312500 0
  0.187500   0.500000 0
  0.312500   0.125000 0
  0.187500   1.000000 0
  0.312500   0.250000 0
  0.125000   0.437500 0
  0.312500   0.187500 0
  0.375000   0.125000 0
  0.250000   1.000000 0
  0.375000   0.187500 0
  0.312500   0.000000 0
  0.187500   0.875000 0
  0.312500   0.062500 0
  0.187500   0.937500 0
  0.375000   0.000000 0
  0.187500   0.187500 0
  0.375000   0.062500 0
  0.250000   0.937500 0
  0.187500   0.437500 0
  0.000000   0.625000 0
  0.250000   0.437500 0
  0.250000   0.500000 0
  0.062500   0.687500 0
  0.187500   0.375000 0
  0.250000   0.375000 0
  0.250000   0.312500 0
  0.187500   0.312500 0
  0.250000   0.187500 0
  0.062500   0.375000 0
  0.062500   0.062500 0
  0.375000   0.375000 0
  0.562500   0.187500 0
  0.062500   0.125000 0
  0.375000   0.500000 0
  0.062500   0.250000 0
  0.375000   0.437500 0
  0.062500   0.187500 0
  0.062500   0.312500 0
  0.125000   0.500000 0
  0.437500   0.312500 0
  0.125000   0.062500 0
  0.437500   0.250000 0
  0.125000   0.000000 0
  0.875000   0.125000 0
  0.000000   0.875000 0
  0.187500   0.250000 0
  0.000000   0.062500 0
  0.937500   1.000000 0
  0.000000   0.000000 0
  0.312500   0.375000 0
  0.000000   0.125000 0
  0.312500   0.437500 0
  0.000000   0.187500 0
  0.312500   0.500000 0
  0.000000   0.250000 0
  0.062500   0.437500 0
  0.062500   0.500000 0
  0.125000   0.312500 0
  0.375000   0.250000 0
  0.062500   0.000000 0
  0.125000   0.125000 0
  0.875000   0.250000 0
  0.000000   1.000000 0
  0.125000   0.187500 0
  0.437500   0.500000 0
  0.125000   0.250000 0
  0.125000   0.375000 0
  0.000000   0.312500 0
  0.187500   0.125000 0
  0.000000   0.437500 0
  0.000000   0.500000 0
  0.000000   0.375000 0
  0.500000   0.250000 0
  0.187500   0.000000 0
  0.937500   0.125000 0
  0.062500   0.875000 0
  0.500000   0.312500 0
  0.187500   0.062500 0
  0.937500   0.187500 0
  0.062500   0.937500 0
  0.500000   0.375000 0
  0.250000   0.062500 0
  1.000000   0.187500 0
  0.125000   0.937500 0
  0.250000   0.000000 0
  1.000000   0.125000 0
  0.125000   0.875000 0
  0.250000   0.125000 0
  1.000000   0.250000 0
  0.125000   1.000000 0
  0.437500   0.437500 0
  0.500000   0.500000 0
  0.500000   0.437500 0
  0.312500   0.625000 0
  0.125000   0.562500 0
  0.000000   0.562500 0
  0.062500   0.562500 0
  1.000000   0.000000 0
  0.125000   0.750000 0
  0.312500   0.562500 0
  0.125000   0.687500 0
  0.125000   0.625000 0
  0.000000   0.687500 0
  0.875000   0.000000 0
  0.000000   0.750000 0
  0.937500   0.000000 0
  0.062500   0.750000 0
  0.062500   0.625000 0
  1.000000   0.062500 0
  0.125000   0.812500 0
  0.875000   0.062500 0
  0.000000   0.812500 0
  0.937500   0.062500 0
  0.062500   0.812500 0
  0.875000   0.187500 0
  0.000000   0.937500 0
  0.187500   0.750000 0
  0.937500   0.250000 0
  0.062500   1.000000 0
  0.250000   0.812500 0
  0.187500   0.562500 0
  0.250000   0.625000 0
  0.187500   0.625000 0
  0.187500   0.687500 0
  0.250000   0.750000 0
  0.250000   0.687500 0
  0.187500   0.812500 0
  0.375000   0.625000 0
  0.250000   0.875000 0
  0.375000   0.562500 0
  0.375000   0.750000 0
  0.375000   0.687500 0
  0.312500   0.687500 0
  0.312500   0.750000 0
  0.375000   0.812500 0
  0.312500   0.812500 0
  0.375000   1.000000 0
  1.000000   0.875000 0
  0.375000   0.937500 0
  0.312500   0.937500 0
  0.437500   0.562500 0
  0.500000   0.562500 0
  0.500000   0.625000 0
  0.437500   0.625000 0
  0.437500   0.750000 0
  0.437500   0.687500 0
  0.625000   0.500000 0
  0.500000   0.750000 0
  0.500000   0.687500 0
  0.437500   0.812500 0
  0.500000   0.812500 0
  0.500000   0.875000 0
  0.625000   0.000000 0
  0.437500   0.875000 0
  0.562500   0.000000 0
  0.437500   1.000000 0
  0.500000   1.000000 0
  0.625000   0.125000 0
  0.500000   0.937500 0
  0.625000   0.062500 0
  0.437500   0.937500 0
  0.562500   0.062500 0
  0.625000   0.250000 0
  0.625000   0.187500 0
  0.562500   0.125000 0
  0.562500   0.250000 0
  0.625000   0.312500 0
  0.562500   0.312500 0
CELLS 256 1280
4 186 155 184 157
4 181 184 153 157
4 163 161 180 150
4 169 180 167 150
4 171 167 153 150
4 175 173 155 157
4 171 153 173 157
4 181 153 161 150
4 192 188 149 158
4 187 149 178 158
4 192 149 190 176
4 191 190 177 176
4 187 126 149 176
4 159 177 126 176
4 175 155 188 158
4 186 178 155 158
4 163 194 161 198
4 181 161 189 198
4 186 184 166 136
4 181 189 184 136
4 118 166 148 136
4 208 148 189 136
4 205 202 194 198
4 208 189 202 198
4 186 166 178 147
4 187 178 144 147
4 159 126 122 139
4 142 122 141 139
4 145 141 144 139
4 118 146 166 147
4 145 144 146 147
4 187 144 126 139
4 208 202 123 133
4 128 123 137 133
4 208 123 148 127
4 118 148 125 127
4 205 131 202 133
4 128 130 123 127
4 179 125 130 127
4 135 137 131 133
4 145 146 170 113
4 151 170 121 113
4 145 170 141 172
4 142 141 174 172
4 118 125 146 113
4 151 156 170 172
4 154 174 156 172
4 179 121 125 113
4 135 119 137 117
4 128 137 110 117
4 179 130 162 109
4 128 110 130 109
4 193 162 108 109
4 112 108 110 109
4 114 116 119 117
4 112 110 116 117
4 179 162 121 160
4 151 121 106 160
4 154 156 185 211
4 151 106 156 211
4 212 185 213 211
4 201 213 106 211
4 193 197 162 160
4 201 106 197 160
4 140 216 228 217
4 222 228 215 217
4 140 228 223 143
4 225 223 227 143
4 222 221 228 143
4 159 215 177 217
4 219 227 221 143
4 191 177 216 217
4 165 232 196 234
4 207 196 230 234
4 165 196 236 200
4 225 227 232 234
4 183 236 239 200
4 207 204 196 200
4 210 239 204 200
4 219 230 227 234
4 159 122 215 241
4 222 215 243 241
4 219 221 237 244
4 222 243 221 244
4 245 237 246 244
4 242 246 243 244
4 142 107 122 241
4 242 243 107 241
4 219 237 230 247
4 207 230 132 247
4 210 204 124 134
4 207 132 204 134
4 129 124 138 134
4 249 138 132 134
4 249 132 240 247
4 245 240 237 247
4 242 107 214 220
4 248 214 250 220
4 242 214 246 253
4 245 246 254 253
4 248 252 214 253
4 251 254 252 253
4 142 174 107 220
4 154 250 174 220
4 249 240 120 256
4 115 120 255 256
4 249 120 138 260
4 129 138 111 260
4 115 259 120 260
4 251 255 254 256
4 257 111 259 260
4 245 254 240 256
4 154 185 250 261
4 248 250 264 261
4 251 252 265 266
4 268 265 269 266
4 248 264 252 266
4 263 269 264 266
4 212 262 185 261
4 263 264 262 261
4 251 265 255 270
4 115 255 274 270
4 257 259 276 281
4 277 276 279 281
4 272 279 274 281
4 268 271 265 270
4 272 274 271 270
4 115 274 259 281
4 112 116 285 282
4 278 285 280 282
4 112 285 108 152
4 114 275 116 282
4 193 108 286 152
4 278 284 285 152
4 273 280 275 282
4 283 286 284 152
4 201 197 102 288
4 104 102 287 288
4 201 102 213 103
4 193 286 197 288
4 212 213 101 103
4 104 105 102 103
4 267 101 105 103
4 283 287 286 288
4 273 100 280 99
4 278 280 95 99
4 283 284 94 93
4 278 95 284 93
4 92 94 91 93
4 96 91 95 93
4 97 98 100 99
4 96 95 98 99
4 283 94 287 90
4 104 287 87 90
4 267 105 86 85
4 104 87 105 85
4 84 86 83 85
4 88 83 87 85
4 88 87 89 90
4 92 89 94 90
4 96 98 78 82
4 164 78 231 82
4 96 78 91 80
4 92 91 79 80
4 164 235 78 80
4 182 79 235 80
4 97 81 98 82
4 224 231 81 82
4 88 89 70 76
4 73 70 77 76
4 88 70 83 72
4 84 83 71 72
4 73 74 70 72
4 182 77 79 76
4 75 71 74 72
4 92 79 89 76
4 224 226 231 233
4 164 231 195 233
4 182 235 238 199
4 209 238 203 199
4 206 203 195 199
4 218 229 226 233
4 206 195 229 233
4 164 195 235 199
4 182 238 77 69
4 73 77 66 69
4 75 74 65 64
4 73 66 74 64
4 63 65 62 64
4 67 62 66 64
4 209 68 238 69
4 67 66 68 69
4 263 262 54 60
4 57 54 61 60
4 263 54 269 56
4 268 269 55 56
4 212 101 262 60
4 57 58 54 56
4 59 55 58 56
4 267 61 101 60
4 272 271 46 52
4 49 46 53 52
4 272 46 279 48
4 277 279 47 48
4 268 55 271 52
4 49 50 46 48
4 51 47 50 48
4 59 53 55 52
4 267 86 61 45
4 57 61 42 45
4 59 58 41 40
4 57 42 58 40
4 39 41 38 40
4 43 38 42 40
4 84 44 86 45
4 43 42 44 45
4 59 41 53 37
4 49 53 34 37
4 51 50 33 32
4 49 34 50 32
4 31 33 30 32
4 35 30 34 32
4 39 36 41 37
4 35 34 36 37
4 43 44 23 28
4 25 23 29 28
4 43 23 38 24
4 84 71 44 28
4 39 38 22 24
4 25 26 23 24
4 27 22 26 24
4 75 29 71 28
4 35 36 14 20
4 17 14 21 20
4 35 14 30 16
4 31 30 15 16
4 39 22 36 20
4 17 18 14 16
4 19 15 18 16
4 27 21 22 20
4 75 65 29 13
4 25 29 10 13
4 27 26 9 8
4 25 10 26 8
4 7 9 6 8
4 11 6 10 8
4 11 10 12 13
4 63 12 65 13
4 27 9 21 5
4 17 21 3 5
4 19 18 168 2
4 17 3 18 2
4 1 168 0 2
4 258 0 3 2
4 7 4 9 5
4 258 3 4 5
CELL_TYPES 256
8
8
8
8
8
8
8
8
8
8
8
8
8
8
8
8
8
8
8
8
8
8
8
8
8
8
8
8
8
8
8
8
8
8
8
8
8
8
8
8
8
8
8
8
8
8
8
8
8
8
8
8
8
8
8
8
8
8
8
8
8
8
8
8
8
8
8
8
8
8
8
8
8
8
8
8
8
8
8
8
8
8
8
8
8
8
8
8
8
8
8
8
8
8
8
8
8
8
8
8
8
8
8
8
8
8
8
8
8
8
8
8
8
8
8
8
8
8
8
8
8
8
8
8
8
8
8
8
8
8
8
8
8
8
8
8
8
8
8
8
8
8
8
8
8
8
8
8
8
8
8
8
8
8
8
8
8
8
8
8
8
8
8
8
8
8
8
8
8
8
8
8
8
8
8
8
8
8
8
8
8
8
8
8
8
8
8
8
8
8
8
8
8
8
8
8
8
8
8
8
8
8
8
8
8
8
8
8
8
8
8
8
8
8
8
8
8
8
8
8
8
8
8
8
8
8
8
8
8
8
8
8
8
8
8
8
8
8
8
8
8
8
8
8
8
8
8
8
8
8
8
8
8
8
8
8
CELL_DATA 256
VECTORS vector_value float
0.0827485 -0.279902 0
-0.0114598 -0.259997 0
-0.0126225 -0.364033 0
-0.00828059 -0.334984 0
-0.0149517 -0.311752 0
0.0220562 -0.326127 0
0.00363565 -0.300436 0
-0.0745253 -0.32335 0
0.0506676 -0.452783 0
0.124324 -0.488097 0
0.0388165 -0.542267 0
0.241109 -0.822193 0
0.112871 -0.546324 0
0.871017 -0.970361 0
0.026966 -0.37515 0
0.127218 -0.391823 0
0.0268965 -0.972798 0
0.0164301 -1.14396 0
0.218564 -1.68644 0
0.124675 -1.4344 0
0.436065 -1.64683 0
0.417712 -1.38833 0
0.0820259 -0.853188 0
0.34072 -1.06145 0
0.194826 -1.77795 0
0.149628 -1.77458 0
0.865048 -1.6953 0
0.319919 -1.64389 0
0.432059 -1.82347 0
0.217866 -1.79586 0
0.165993 -1.83863 0
0.30469 -1.93348 0
0.419991 -2.01181 0
0.23486 -1.80581 0
0.379188 -1.72567 0
0.409165 -1.40175 0
0.106296 -2.11653 0
0.130532 -1.65816 0
0.0744341 -1.39869 0
0.0891706 -1.90335 0
0.155619 -1.09331 0
0.134908 -1.08287 0
0.343483 -1.00952 0
0.17604 -0.956643 0
0.178185 -1.18613 0
0.30378 -1.10624 0
0.156811 -1.10019 0
0.043774 -1.14517 0
0.0527036 -1.76629 0
0.147685 -1.74019 0
-0.137494 -1.65688 0
0.0348683 -1.705 0
-0.117918 -1.34658 0
0.00199865 -1.31175 0
0.033397 -1.4053 0
0.0963533 -1.36076 0
-0.0489515 -1.60575 0
0.103346 -1.54376 0
0.115948 -1.34471 0
0.249129 -1.43417 0
0.0840461 -1.47294 0
0.182611 -1.48189 0
-0.0589033 -1.40733 0
0.0930752 -1.4491 0
0.0964157 -1.51028 0
0.284309 -1.60397 0
0.054013 -1.66071 0
0.0185802 -1.7333 0
0.151181 -1.7386 0
0.427231 -1.43583 0
0.0506268 -1.79523 0
0.175282 -1.23858 0
-0.0909986 -1.61779 0
-0.21595 -1.79775 0
-0.191422 -1.33537 0
-0.0215455 -1.73034 0
-0.0719757 -1.07198 0
-0.571451 -1.57519 0
-0.337243 -1.19329 0
-0.0315862 -1.8202 0
0.445819 -1.24245 0
0.325994 -1.13458 0
0.0120281 -0.94804 0
0.151997 -1.04244 0
-0.0738815 -1.11839 0
0.0891964 -1.1727 0
0.249779 -1.35557 0
0.263977 -1.20538 0
-0.134517 -0.78154 0
-0.291692 -0.625315 0
-0.452882 -0.922347 0
-0.629474 -0.714111 0
-0.311387 -0.936157 0
-0.445779 -0.819204 0
-0.427005 -0.859619 0
-0.314656 -1.01885 0
0.142143 -0.847221 0
-0.0620097 -0.901031 0
0.0205662 -0.689441 0
-0.109119 -0.639879 0
-0.0806373 -0.753454 0
-0.0811269 -0.729805 0
0.108671 -0.959978 0
0.0660697 -1.03503 0
-0.449078 -0.907892 0
-0.328152 -0.921737 0
-0.396567 -0.975446 0
-0.233318 -0.985774 0
-0.379881 -0.991795 0
-0.125868 -0.815727 0
-0.225282 -1.00619 0
-0.281382 -0.737463 0
-0.00396304 -1.29898 0
-0.162771 -1.26218 0
-0.177699 -1.08975 0
-0.27978 -1.23991 0
-0.153798 -1.23584 0
-0.238328 -1.28044 0
-0.0345144 -1.45621 0
-0.224688 -1.40054 0
-0.0956564 -0.937471 0
-0.194099 -0.995726 0
-0.2846 -1.05313 0
-0.291222 -0.953494 0
-0.356987 -0.93063 0
-0.20065 -1.18512 0
-0.185609 -1.03036 0
-0.34632 -1.09328 0
0.0611001 -1.34399 0
0.00509102 -1.38207 0
0.0144403 -1.37019 0
0.0183319 -1.34977 0
-0.0328421 -1.43288 0
0.0109956 -1.29641 0
-0.00672069 -1.45735 0
0.0950493 -1.35817 0
0.0698141 -1.48167 0
-0.0245043 -1.48459 0
0.0932964 -1.3363 0
-0.0141527 -1.50195 0
0.00357495 -1.17547 0
-0.0638966 -1.37845 0
-0.121099 -1.25741 0
0.0566691 -1.48781 0
-0.0304133 -1.49825 0
-0.12912 -1.41562 0
0.00488437 -1.05402 0
-0.0695662 -1.28651 0
-0.127378 -0.595386 0
-0.10502 -0.530618 0
-0.0366188 -0.38576 0
-0.141733 -0.449568 0
-0.0042733 -0.773272 0
-0.0524908 -0.687565 0
-0.12001 -0.831958 0
-0.0918403 -0.737775 0
0.00681088 -0.831946 0
-0.0263493 -0.733817 0
-0.0295541 -0.6956 0
-0.0827321 -0.665415 0
-0.0507581 -0.490804 0
-0.0286692 -0.308602 0
-0.0509466 -0.554803 0
-0.0846594 -0.586826 0
-0.0239774 -0.293661 0
-0.0172463 -0.35602 0
-0.0240325 -0.45105 0
-0.00990015 -0.312134 0
-0.0284591 -0.540955 0
-0.0461501 -0.522728 0
-0.00726718 -0.522915 0
0.0296321 -0.46669 0
-0.0271762 -0.503168 0
-0.0419098 -0.481036 0
-0.0427883 -0.467064 0
-0.0774672 -0.56478 0
-0.0034945 -0.504422 0
-0.0105487 -0.53248 0
-0.00552638 -0.537875 0
-0.0316068 -0.335624 0
0.00302159 -0.307038 0
-0.000724408 -0.3248 0
0.00773202 -0.317792 0
-0.0124913 -0.577027 0
-0.0195184 -0.44697 0
-0.0414368 -0.432383 0
-0.0510205 -0.480732 0
-0.0290741 -0.454758 0
-0.0143955 -0.482498 0
-0.012665 -0.455437 0
-0.0263681 -0.393598 0
-0.0114029 -0.431369 0
-0.227353 -1.07034 0
-0.114878 -1.09605 0
-0.259499 -1.1666 0
-0.263632 -1.20211 0
-0.0817125 -1.06453 0
-0.149666 -1.2221 0
-0.291368 -1.26869 0
-0.208861 -1.11654 0
-0.283198 -1.13544 0
-0.316958 -1.05474 0
-0.410793 -1.08378 0
-0.271523 -1.02681 0
-0.298038 -1.17566 0
-0.451928 -1.03152 0
-0.308603 -1.01027 0
-0.407594 -1.15784 0
-0.202602 -0.980182 0
-0.0987828 -1.02302 0
-0.258629 -0.967769 0
-0.115392 -0.947347 0
-0.240641 -1.01372 0
-0.154601 -1.05537 0
-0.0356835 -0.977461 0
-0.140103 -1.06022 0
-0.431583 -1.08737 0
-0.341742 -1.14169 0
-0.442726 -1.12385 0
-0.40363 -1.18843 0
-0.369586 -0.80301 0
-0.416954 -0.678611 0
-0.48557 -0.858127 0
-0.347311 -0.744248 0
-0.116404 -0.361263 0
-0.0862041 -0.437289 0
-0.150617 -0.393802 0
0.00248086 -0.38216 0
-0.21057 -0.469499 0
-0.123876 -0.461691 0
-0.176265 -0.447039 0
-0.0440096 -0.432682 0
-0.330043 -0.840723 0
-0.306258 -0.371296 0
-0.484744 -0.855838 0
-0.102916 -0.93032 0
-0.458365 -0.682371 0
-0.320871 -0.543838 0
0.11531 -0.851454 0
-0.33967 -0.387168 0
-0.0419184 -0.508973 0
-0.0571113 -0.53555 0
-0.0725405 -0.752455 0
-0.0769572 -0.587159 0
0.0308556 -0.584403 0
-0.0229566 -0.592303 0
-0.0182728 -0.551073 0
-0.0179536 -0.514847 0
-0.150957 -1.10476 0
-0.175883 -1.43972 0
-0.0407728 -1.30463 0
-0.135485 -1.58294 0
-0.172701 -0.827299 0
-0.054585 -0.600014 0
0.0335501 -0.519998 0
-0.0294905 -0.515938 0
