# vtk DataFile Version 2.0
Unstructured Grid by M++
ASCII
DATASET UNSTRUCTURED_GRID
POINTS 289 float
  1.000000   0.937500 0
  1.000000   1.000000 0
  0.937500   0.937500 0
  0.937500   0.875000 0
  1.000000   0.812500 0
  0.937500   0.812500 0
  1.000000   0.687500 0
  1.000000   0.750000 0
  0.937500   0.687500 0
  0.937500   0.750000 0
  0.937500   0.625000 0
  1.000000   0.625000 0
  1.000000   0.562500 0
  0.937500   0.562500 0
  0.812500   0.875000 0
  0.812500   1.000000 0
  0.812500   0.937500 0
  0.875000   0.875000 0
  0.875000   0.937500 0
  0.875000   1.000000 0
  0.812500   0.812500 0
  0.875000   0.812500 0
  0.812500   0.750000 0
  0.812500   0.625000 0
  0.812500   0.687500 0
  0.875000   0.625000 0
  0.875000   0.687500 0
  0.875000   0.750000 0
  0.812500   0.562500 0
  0.875000   0.562500 0
  0.750000   0.937500 0
  0.750000   1.000000 0
  0.687500   0.937500 0
  0.687500   1.000000 0
  0.687500   0.875000 0
  0.750000   0.875000 0
  0.750000   0.812500 0
  0.687500   0.812500 0
  0.750000   0.687500 0
  0.750000   0.750000 0
  0.687500   0.687500 0
  0.687500   0.750000 0
  0.687500   0.625000 0
  0.750000   0.625000 0
  0.750000   0.562500 0
  0.687500   0.562500 0
  0.562500   0.875000 0
  0.562500   1.000000 0
  0.562500   0.937500 0
  0.625000   0.875000 0
  0.625000   0.937500 0
  0.625000   1.000000 0
  0.562500   0.812500 0
  0.625000   0.812500 0
  0.562500   0.625000 0
  0.562500   0.750000 0
  0.562500   0.687500 0
  0.625000   0.625000 0
  0.625000   0.687500 0
  0.625000   0.750000 0
  0.562500   0.562500 0
  0.625000   0.562500 0
  1.000000   0.437500 0
  1.000000   0.500000 0
  0.937500   0.437500 0
  0.937500   0.500000 0
  0.937500   0.375000 0
  1.000000   0.375000 0
  1.000000   0.312500 0
  0.937500   0.312500 0
  0.812500   0.375000 0
  0.812500   0.500000 0
  0.812500   0.437500 0
  0.875000   0.375000 0
  0.875000   0.437500 0
  0.875000   0.500000 0
  0.812500   0.312500 0
  0.875000   0.312500 0
  0.812500   0.125000 0
  0.812500   0.250000 0
  0.812500   0.187500 0
  0.812500   0.000000 0
  0.812500   0.062500 0
  0.750000   0.437500 0
  0.750000   0.500000 0
  0.687500   0.437500 0
  0.687500   0.500000 0
  0.687500   0.375000 0
  0.750000   0.375000 0
  0.750000   0.312500 0
  0.687500   0.312500 0
  0.750000   0.187500 0
  0.750000   0.250000 0
  0.687500   0.187500 0
  0.687500   0.250000 0
  0.687500   0.125000 0
  0.750000   0.125000 0
  0.750000   0.000000 0
  0.750000   0.062500 0
  0.687500   0.062500 0
  0.687500   0.000000 0
  0.562500   0.500000 0
  0.562500   0.375000 0
  0.562500   0.437500 0
  0.625000   0.375000 0
  0.625000   0.437500 0
  0.437500   0.375000 0
  0.250000   0.562500 0
  0.500000   0.187500 0
  0.437500   0.187500 0
  0.437500   0.125000 0
  0.312500   1.000000 0
  0.500000   0.125000 0
  0.312500   0.312500 0
  0.500000   0.000000 0
  0.375000   0.875000 0
  0.500000   0.062500 0
  0.437500   0.062500 0
  0.250000   0.250000 0
  0.437500   0.000000 0
  0.312500   0.875000 0
  0.375000   0.312500 0
  0.187500   0.500000 0
  0.312500   0.125000 0
  0.187500   1.000000 0
  0.312500   0.250000 0
  0.125000   0.437500 0
  0.312500   0.187500 0
  0.375000   0.125000 0
  0.250000   1.000000 0
  0.375000   0.187500 0
  0.312500   0.000000 0
  0.187500   0.875000 0
  0.312500   0.062500 0
  0.187500   0.937500 0
  0.375000   0.000000 0
  0.187500   0.187500 0
  0.375000   0.062500 0
  0.250000   0.937500 0
  0.187500   0.437500 0
  0.000000   0.625000 0
  0.250000   0.437500 0
  0.250000   0.500000 0
  0.062500   0.687500 0
  0.187500   0.375000 0
  0.250000   0.375000 0
  0.250000   0.312500 0
  0.187500   0.312500 0
  0.250000   0.187500 0
  0.062500   0.375000 0
  0.062500   0.062500 0
  0.375000   0.375000 0
  0.562500   0.187500 0
  0.062500   0.125000 0
  0.375000   0.500000 0
  0.062500   0.250000 0
  0.375000   0.437500 0
  0.062500   0.187500 0
  0.062500   0.312500 0
  0.125000   0.500000 0
  0.437500   0.312500 0
  0.125000   0.062500 0
  0.437500   0.250000 0
  0.125000   0.000000 0
  0.875000   0.125000 0
  0.000000   0.875000 0
  0.187500   0.250000 0
  0.000000   0.062500 0
  0.937500   1.000000 0
  0.000000   0.000000 0
  0.312500   0.375000 0
  0.000000   0.125000 0
  0.312500   0.437500 0
  0.000000   0.187500 0
  0.312500   0.500000 0
  0.000000   0.250000 0
  0.062500   0.437500 0
  0.062500   0.500000 0
  0.125000   0.312500 0
  0.375000   0.250000 0
  0.062500   0.000000 0
  0.125000   0.125000 0
  0.875000   0.250000 0
  0.000000   1.000000 0
  0.125000   0.187500 0
  0.437500   0.500000 0
  0.125000   0.250000 0
  0.125000   0.375000 0
  0.000000   0.312500 0
  0.187500   0.125000 0
  0.000000   0.437500 0
  0.000000   0.500000 0
  0.000000   0.375000 0
  0.500000   0.250000 0
  0.187500   0.000000 0
  0.937500   0.125000 0
  0.062500   0.875000 0
  0.500000   0.312500 0
  0.187500   0.062500 0
  0.937500   0.187500 0
  0.062500   0.937500 0
  0.500000   0.375000 0
  0.250000   0.062500 0
  1.000000   0.187500 0
  0.125000   0.937500 0
  0.250000   0.000000 0
  1.000000   0.125000 0
  0.125000   0.875000 0
  0.250000   0.125000 0
  1.000000   0.250000 0
  0.125000   1.000000 0
  0.437500   0.437500 0
  0.500000   0.500000 0
  0.500000   0.437500 0
  0.312500   0.625000 0
  0.125000   0.562500 0
  0.000000   0.562500 0
  0.062500   0.562500 0
  1.000000   0.000000 0
  0.125000   0.750000 0
  0.312500   0.562500 0
  0.125000   0.687500 0
  0.125000   0.625000 0
  0.000000   0.687500 0
  0.875000   0.000000 0
  0.000000   0.750000 0
  0.937500   0.000000 0
  0.062500   0.750000 0
  0.062500   0.625000 0
  1.000000   0.062500 0
  0.125000   0.812500 0
  0.875000   0.062500 0
  0.000000   0.812500 0
  0.937500   0.062500 0
  0.062500   0.812500 0
  0.875000   0.187500 0
  0.000000   0.937500 0
  0.187500   0.750000 0
  0.937500   0.250000 0
  0.062500   1.000000 0
  0.250000   0.812500 0
  0.187500   0.562500 0
  0.250000   0.625000 0
  0.187500   0.625000 0
  0.187500   0.687500 0
  0.250000   0.750000 0
  0.250000   0.687500 0
  0.187500   0.812500 0
  0.375000   0.625000 0
  0.250000   0.875000 0
  0.375000   0.562500 0
  0.375000   0.750000 0
  0.375000   0.687500 0
  0.312500   0.687500 0
  0.312500   0.750000 0
  0.375000   0.812500 0
  0.312500   0.812500 0
  0.375000   1.000000 0
  1.000000   0.875000 0
  0.375000   0.937500 0
  0.312500   0.937500 0
  0.437500   0.562500 0
  0.500000   0.562500 0
  0.500000   0.625000 0
  0.437500   0.625000 0
  0.437500   0.750000 0
  0.437500   0.687500 0
  0.625000   0.500000 0
  0.500000   0.750000 0
  0.500000   0.687500 0
  0.437500   0.812500 0
  0.500000   0.812500 0
  0.500000   0.875000 0
  0.625000   0.000000 0
  0.437500   0.875000 0
  0.562500   0.000000 0
  0.437500   1.000000 0
  0.500000   1.000000 0
  0.625000   0.125000 0
  0.500000   0.937500 0
  0.625000   0.062500 0
  0.437500   0.937500 0
  0.562500   0.062500 0
  0.625000   0.250000 0
  0.625000   0.187500 0
  0.562500   0.125000 0
  0.562500   0.250000 0
  0.625000   0.312500 0
  0.562500   0.312500 0
CELLS 256 1280
4 186 155 184 157
4 181 184 153 157
4 163 161 180 150
4 169 180 167 150
4 171 167 153 150
4 175 173 155 157
4 171 153 173 157
4 181 153 161 150
4 192 188 149 158
4 187 149 178 158
4 192 149 190 176
4 191 190 177 176
4 187 126 149 176
4 159 177 126 176
4 175 155 188 158
4 186 178 155 158
4 163 194 161 198
4 181 161 189 198
4 186 184 166 136
4 181 189 184 136
4 118 166 148 136
4 208 148 189 136
4 205 202 194 198
4 208 189 202 198
4 186 166 178 147
4 187 178 144 147
4 159 126 122 139
4 142 122 141 139
4 145 141 144 139
4 118 146 166 147
4 145 144 146 147
4 187 144 126 139
4 208 202 123 133
4 128 123 137 133
4 208 123 148 127
4 118 148 125 127
4 205 131 202 133
4 128 130 123 127
4 179 125 130 127
4 135 137 131 133
4 145 146 170 113
4 151 170 121 113
4 145 170 141 172
4 142 141 174 172
4 118 125 146 113
4 151 156 170 172
4 154 174 156 172
4 179 121 125 113
4 135 119 137 117
4 128 137 110 117
4 179 130 162 109
4 128 110 130 109
4 193 162 108 109
4 112 108 110 109
4 114 116 119 117
4 112 110 116 117
4 179 162 121 160
4 151 121 106 160
4 154 156 185 211
4 151 106 156 211
4 212 185 213 211
4 201 213 106 211
4 193 197 162 160
4 201 106 197 160
4 140 216 228 217
4 222 228 215 217
4 140 228 223 143
4 225 223 227 143
4 222 221 228 143
4 159 215 177 217
4 219 227 221 143
4 191 177 216 217
4 165 232 196 234
4 207 196 230 234
4 165 196 236 200
4 225 227 232 234
4 183 236 239 200
4 207 204 196 200
4 210 239 204 200
4 219 230 227 234
4 159 122 215 241
4 222 215 243 241
4 219 221 237 244
4 222 243 221 244
4 245 237 246 244
4 242 246 243 244
4 142 107 122 241
4 242 243 107 241
4 219 237 230 247
4 207 230 132 247
4 210 204 124 134
4 207 132 204 134
4 129 124 138 134
4 249 138 132 134
4 249 132 240 247
4 245 240 237 247
4 242 107 214 220
4 248 214 250 220
4 242 214 246 253
4 245 246 254 253
4 248 252 214 253
4 251 254 252 253
4 142 174 107 220
4 154 250 174 220
4 249 240 120 256
4 115 120 255 256
4 249 120 138 260
4 129 138 111 260
4 115 259 120 260
4 251 255 254 256
4 257 111 259 260
4 245 254 240 256
4 154 185 250 261
4 248 250 264 261
4 251 252 265 266
4 268 265 269 266
4 248 264 252 266
4 263 269 264 266
4 212 262 185 261
4 263 264 262 261
4 251 265 255 270
4 115 255 274 270
4 257 259 276 281
4 277 276 279 281
4 272 279 274 281
4 268 271 265 270
4 272 274 271 270
4 115 274 259 281
4 112 116 285 282
4 278 285 280 282
4 112 285 108 152
4 114 275 116 282
4 193 108 286 152
4 278 284 285 152
4 273 280 275 282
4 283 286 284 152
4 201 197 102 288
4 104 102 287 288
4 201 102 213 103
4 193 286 197 288
4 212 213 101 103
4 104 105 102 103
4 267 101 105 103
4 283 287 286 288
4 273 100 280 99
4 278 280 95 99
4 283 284 94 93
4 278 95 284 93
4 92 94 91 93
4 96 91 95 93
4 97 98 100 99
4 96 95 98 99
4 283 94 287 90
4 104 287 87 90
4 267 105 86 85
4 104 87 105 85
4 84 86 83 85
4 88 83 87 85
4 88 87 89 90
4 92 89 94 90
4 96 98 78 82
4 164 78 231 82
4 96 78 91 80
4 92 91 79 80
4 164 235 78 80
4 182 79 235 80
4 97 81 98 82
4 224 231 81 82
4 88 89 70 76
4 73 70 77 76
4 88 70 83 72
4 84 83 71 72
4 73 74 70 72
4 182 77 79 76
4 75 71 74 72
4 92 79 89 76
4 224 226 231 233
4 164 231 195 233
4 182 235 238 199
4 209 238 203 199
4 206 203 195 199
4 218 229 226 233
4 206 195 229 233
4 164 195 235 199
4 182 238 77 69
4 73 77 66 69
4 75 74 65 64
4 73 66 74 64
4 63 65 62 64
4 67 62 66 64
4 209 68 238 69
4 67 66 68 69
4 263 262 54 60
4 57 54 61 60
4 263 54 269 56
4 268 269 55 56
4 212 101 262 60
4 57 58 54 56
4 59 55 58 56
4 267 61 101 60
4 272 271 46 52
4 49 46 53 52
4 272 46 279 48
4 277 279 47 48
4 268 55 271 52
4 49 50 46 48
4 51 47 50 48
4 59 53 55 52
4 267 86 61 45
4 57 61 42 45
4 59 58 41 40
4 57 42 58 40
4 39 41 38 40
4 43 38 42 40
4 84 44 86 45
4 43 42 44 45
4 59 41 53 37
4 49 53 34 37
4 51 50 33 32
4 49 34 50 32
4 31 33 30 32
4 35 30 34 32
4 39 36 41 37
4 35 34 36 37
4 43 44 23 28
4 25 23 29 28
4 43 23 38 24
4 84 71 44 28
4 39 38 22 24
4 25 26 23 24
4 27 22 26 24
4 75 29 71 28
4 35 36 14 20
4 17 14 21 20
4 35 14 30 16
4 31 30 15 16
4 39 22 36 20
4 17 18 14 16
4 19 15 18 16
4 27 21 22 20
4 75 65 29 13
4 25 29 10 13
4 27 26 9 8
4 25 10 26 8
4 7 9 6 8
4 11 6 10 8
4 11 10 12 13
4 63 12 65 13
4 27 9 21 5
4 17 21 3 5
4 19 18 168 2
4 17 3 18 2
4 1 168 0 2
4 258 0 3 2
4 7 4 9 5
4 258 3 4 5
CELL_TYPES 256
8
8
8
8
8
8
8
8
8
8
8
8
8
8
8
8
8
8
8
8
8
8
8
8
8
8
8
8
8
8
8
8
8
8
8
8
8
8
8
8
8
8
8
8
8
8
8
8
8
8
8
8
8
8
8
8
8
8
8
8
8
8
8
8
8
8
8
8
8
8
8
8
8
8
8
8
8
8
8
8
8
8
8
8
8
8
8
8
8
8
8
8
8
8
8
8
8
8
8
8
8
8
8
8
8
8
8
8
8
8
8
8
8
8
8
8
8
8
8
8
8
8
8
8
8
8
8
8
8
8
8
8
8
8
8
8
8
8
8
8
8
8
8
8
8
8
8
8
8
8
8
8
8
8
8
8
8
8
8
8
8
8
8
8
8
8
8
8
8
8
8
8
8
8
8
8
8
8
8
8
8
8
8
8
8
8
8
8
8
8
8
8
8
8
8
8
8
8
8
8
8
8
8
8
8
8
8
8
8
8
8
8
8
8
8
8
8
8
8
8
8
8
8
8
8
8
8
8
8
8
8
8
8
8
8
8
8
8
8
8
8
8
8
8
8
8
8
8
8
8
8
8
8
8
8
8
CELL_DATA 256
SCALARS scalar_value float 1
LOOKUP_TABLE default
-0.00985802
-0.0193568
-3.81851e-05
-7.99341e-06
-7.31647e-05
-0.0089197
-0.0039176
-0.00027207
-0.0292437
0.0228706
-0.143227
0.242118
0.149167
0.42433
-0.022235
-0.00945617
-0.000170103
0.0176082
0.250491
0.0749755
2.42036
0.462676
0.000373935
-0.0328007
0.396569
0.534395
0.773376
4.33396
3.85022
3.28773
3.51689
0.415385
0.123073
-0.00512997
0.89721
1.92382
0.007874
0.00391972
-0.0129302
0.00104393
4.03434
3.08984
4.49713
4.62387
2.95962
4.38779
4.64798
0.738322
0.00726604
0.00230453
2.28635
0.446678
2.88672
0.349779
-0.000529294
0.00888438
3.83774
4.48078
4.56655
4.62867
4.38425
4.63166
4.50889
4.65381
0.0376766
-0.0205176
0.00973993
0.00116039
0.0115376
0.0614119
0.0035595
0.0992563
-0.000423551
0.000292359
0.000203133
0.00107171
-2.36123e-05
-0.00077363
0.000370264
0.000778116
2.13198
3.0858
0.442485
2.39318
-0.0171373
0.649269
4.32151
2.94742
-0.00892979
-0.00403857
0.00080981
-0.000206445
-0.000685569
-0.00335569
0.00796997
-0.00561573
4.52969
4.2969
3.26789
0.255273
2.16814
0.0110696
4.59287
4.60624
0.00543923
0.00470732
-0.000294109
-0.00104828
0.00158391
0.00222882
-0.000825857
0.0117634
3.8391
1.85632
-0.00702211
0.0196721
0.13753
-0.0655096
3.07291
0.753357
-0.00692987
0.00319062
-0.000174294
-0.00028183
0.000275185
-0.00707594
0.00219217
-0.000212932
0.0100963
0.0101989
0.0469003
-0.000968656
1.21379
0.0199749
-0.00126099
1.12807
4.50238
4.32531
4.6518
3.44157
4.61867
4.63185
4.62815
3.22291
-3.71809e-05
7.5074e-05
0.00990153
0.000904201
0.000987744
0.000542856
-4.70819e-06
3.20203e-05
0.0188596
1.10418
4.61443
4.12362
4.52704
3.86834
0.962562
-0.0117592
-4.67587e-06
7.68242e-07
2.39165e-05
0.000238607
-1.38834e-06
1.54172e-05
-9.68252e-07
1.44332e-07
0.013245
0.00622841
0.147775
1.32238
-0.00655976
-6.95228e-05
0.870191
0.000549163
6.48129e-08
-4.09057e-07
1.99089e-05
1.32131e-06
-2.86354e-07
-6.36532e-09
-7.58686e-08
-4.38641e-06
0.000146639
-0.000210759
0.146741
-0.00127948
-0.00457959
0.000927544
1.70329e-05
2.10889e-05
1.3854
1.43027
-0.0423081
0.0137646
3.95344
0.0618989
0.00532898
4.01543
-0.000968478
0.000451536
0.00128923
-0.000193496
-0.00289928
0.000607347
-0.000187659
-0.000841313
4.59776
3.91179
0.0680769
1.76044
0.507734
2.47595
4.59832
4.17852
0.00869716
-0.00181298
0.000166372
-0.000241084
0.00402202
0.00260858
0.0222908
-0.0162366
4.4727
3.19064
4.19487
3.64524
2.31725
1.73705
-0.102445
2.99632
-0.00331803
0.0037509
-0.000407698
-0.000734369
0.148084
0.0031879
-0.00058186
-0.0366317
0.786354
0.583863
-0.0392042
0.0175969
-0.0500992
-0.022452
-0.0223785
-0.027031
0.00455668
0.00145352
-3.60273e-05
-0.00012709
0.000120081
0.000110452
0.0012737
0.000575956
