# vtk DataFile Version 2.0
Unstructured Grid by M++
ASCII
DATASET UNSTRUCTURED_GRID
POINTS 289 float
  1.000000   0.937500 0
  1.000000   1.000000 0
  0.937500   0.937500 0
  0.937500   0.875000 0
  1.000000   0.812500 0
  0.937500   0.812500 0
  1.000000   0.687500 0
  1.000000   0.750000 0
  0.937500   0.687500 0
  0.937500   0.750000 0
  0.937500   0.625000 0
  1.000000   0.625000 0
  1.000000   0.562500 0
  0.937500   0.562500 0
  0.812500   0.875000 0
  0.812500   1.000000 0
  0.812500   0.937500 0
  0.875000   0.875000 0
  0.875000   0.937500 0
  0.875000   1.000000 0
  0.812500   0.812500 0
  0.875000   0.812500 0
  0.812500   0.750000 0
  0.812500   0.625000 0
  0.812500   0.687500 0
  0.875000   0.625000 0
  0.875000   0.687500 0
  0.875000   0.750000 0
  0.812500   0.562500 0
  0.875000   0.562500 0
  0.750000   0.937500 0
  0.750000   1.000000 0
  0.687500   0.937500 0
  0.687500   1.000000 0
  0.687500   0.875000 0
  0.750000   0.875000 0
  0.750000   0.812500 0
  0.687500   0.812500 0
  0.750000   0.687500 0
  0.750000   0.750000 0
  0.687500   0.687500 0
  0.687500   0.750000 0
  0.687500   0.625000 0
  0.750000   0.625000 0
  0.750000   0.562500 0
  0.687500   0.562500 0
  0.562500   0.875000 0
  0.562500   1.000000 0
  0.562500   0.937500 0
  0.625000   0.875000 0
  0.625000   0.937500 0
  0.625000   1.000000 0
  0.562500   0.812500 0
  0.625000   0.812500 0
  0.562500   0.625000 0
  0.562500   0.750000 0
  0.562500   0.687500 0
  0.625000   0.625000 0
  0.625000   0.687500 0
  0.625000   0.750000 0
  0.562500   0.562500 0
  0.625000   0.562500 0
  1.000000   0.437500 0
  1.000000   0.500000 0
  0.937500   0.437500 0
  0.937500   0.500000 0
  0.937500   0.375000 0
  1.000000   0.375000 0
  1.000000   0.312500 0
  0.937500   0.312500 0
  0.812500   0.375000 0
  0.812500   0.500000 0
  0.812500   0.437500 0
  0.875000   0.375000 0
  0.875000   0.437500 0
  0.875000   0.500000 0
  0.812500   0.312500 0
  0.875000   0.312500 0
  0.812500   0.125000 0
  0.812500   0.250000 0
  0.812500   0.187500 0
  0.812500   0.000000 0
  0.812500   0.062500 0
  0.750000   0.437500 0
  0.750000   0.500000 0
  0.687500   0.437500 0
  0.687500   0.500000 0
  0.687500   0.375000 0
  0.750000   0.375000 0
  0.750000   0.312500 0
  0.687500   0.312500 0
  0.750000   0.187500 0
  0.750000   0.250000 0
  0.687500   0.187500 0
  0.687500   0.250000 0
  0.687500   0.125000 0
  0.750000   0.125000 0
  0.750000   0.000000 0
  0.750000   0.062500 0
  0.687500   0.062500 0
  0.687500   0.000000 0
  0.562500   0.500000 0
  0.562500   0.375000 0
  0.562500   0.437500 0
  0.625000   0.375000 0
  0.625000   0.437500 0
  0.437500   0.375000 0
  0.250000   0.562500 0
  0.500000   0.187500 0
  0.437500   0.187500 0
  0.437500   0.125000 0
  0.312500   1.000000 0
  0.500000   0.125000 0
  0.312500   0.312500 0
  0.500000   0.000000 0
  0.375000   0.875000 0
  0.500000   0.062500 0
  0.437500   0.062500 0
  0.250000   0.250000 0
  0.437500   0.000000 0
  0.312500   0.875000 0
  0.375000   0.312500 0
  0.187500   0.500000 0
  0.312500   0.125000 0
  0.187500   1.000000 0
  0.312500   0.250000 0
  0.125000   0.437500 0
  0.312500   0.187500 0
  0.375000   0.125000 0
  0.250000   1.000000 0
  0.375000   0.187500 0
  0.312500   0.000000 0
  0.187500   0.875000 0
  0.312500   0.062500 0
  0.187500   0.937500 0
  0.375000   0.000000 0
  0.187500   0.187500 0
  0.375000   0.062500 0
  0.250000   0.937500 0
  0.187500   0.437500 0
  0.000000   0.625000 0
  0.250000   0.437500 0
  0.250000   0.500000 0
  0.062500   0.687500 0
  0.187500   0.375000 0
  0.250000   0.375000 0
  0.250000   0.312500 0
  0.187500   0.312500 0
  0.250000   0.187500 0
  0.062500   0.375000 0
  0.062500   0.062500 0
  0.375000   0.375000 0
  0.562500   0.187500 0
  0.062500   0.125000 0
  0.375000   0.500000 0
  0.062500   0.250000 0
  0.375000   0.437500 0
  0.062500   0.187500 0
  0.062500   0.312500 0
  0.125000   0.500000 0
  0.437500   0.312500 0
  0.125000   0.062500 0
  0.437500   0.250000 0
  0.125000   0.000000 0
  0.875000   0.125000 0
  0.000000   0.875000 0
  0.187500   0.250000 0
  0.000000   0.062500 0
  0.937500   1.000000 0
  0.000000   0.000000 0
  0.312500   0.375000 0
  0.000000   0.125000 0
  0.312500   0.437500 0
  0.000000   0.187500 0
  0.312500   0.500000 0
  0.000000   0.250000 0
  0.062500   0.437500 0
  0.062500   0.500000 0
  0.125000   0.312500 0
  0.375000   0.250000 0
  0.062500   0.000000 0
  0.125000   0.125000 0
  0.875000   0.250000 0
  0.000000   1.000000 0
  0.125000   0.187500 0
  0.437500   0.500000 0
  0.125000   0.250000 0
  0.125000   0.375000 0
  0.000000   0.312500 0
  0.187500   0.125000 0
  0.000000   0.437500 0
  0.000000   0.500000 0
  0.000000   0.375000 0
  0.500000   0.250000 0
  0.187500   0.000000 0
  0.937500   0.125000 0
  0.062500   0.875000 0
  0.500000   0.312500 0
  0.187500   0.062500 0
  0.937500   0.187500 0
  0.062500   0.937500 0
  0.500000   0.375000 0
  0.250000   0.062500 0
  1.000000   0.187500 0
  0.125000   0.937500 0
  0.250000   0.000000 0
  1.000000   0.125000 0
  0.125000   0.875000 0
  0.250000   0.125000 0
  1.000000   0.250000 0
  0.125000   1.000000 0
  0.437500   0.437500 0
  0.500000   0.500000 0
  0.500000   0.437500 0
  0.312500   0.625000 0
  0.125000   0.562500 0
  0.000000   0.562500 0
  0.062500   0.562500 0
  1.000000   0.000000 0
  0.125000   0.750000 0
  0.312500   0.562500 0
  0.125000   0.687500 0
  0.125000   0.625000 0
  0.000000   0.687500 0
  0.875000   0.000000 0
  0.000000   0.750000 0
  0.937500   0.000000 0
  0.062500   0.750000 0
  0.062500   0.625000 0
  1.000000   0.062500 0
  0.125000   0.812500 0
  0.875000   0.062500 0
  0.000000   0.812500 0
  0.937500   0.062500 0
  0.062500   0.812500 0
  0.875000   0.187500 0
  0.000000   0.937500 0
  0.187500   0.750000 0
  0.937500   0.250000 0
  0.062500   1.000000 0
  0.250000   0.812500 0
  0.187500   0.562500 0
  0.250000   0.625000 0
  0.187500   0.625000 0
  0.187500   0.687500 0
  0.250000   0.750000 0
  0.250000   0.687500 0
  0.187500   0.812500 0
  0.375000   0.625000 0
  0.250000   0.875000 0
  0.375000   0.562500 0
  0.375000   0.750000 0
  0.375000   0.687500 0
  0.312500   0.687500 0
  0.312500   0.750000 0
  0.375000   0.812500 0
  0.312500   0.812500 0
  0.375000   1.000000 0
  1.000000   0.875000 0
  0.375000   0.937500 0
  0.312500   0.937500 0
  0.437500   0.562500 0
  0.500000   0.562500 0
  0.500000   0.625000 0
  0.437500   0.625000 0
  0.437500   0.750000 0
  0.437500   0.687500 0
  0.625000   0.500000 0
  0.500000   0.750000 0
  0.500000   0.687500 0
  0.437500   0.812500 0
  0.500000   0.812500 0
  0.500000   0.875000 0
  0.625000   0.000000 0
  0.437500   0.875000 0
  0.562500   0.000000 0
  0.437500   1.000000 0
  0.500000   1.000000 0
  0.625000   0.125000 0
  0.500000   0.937500 0
  0.625000   0.062500 0
  0.437500   0.937500 0
  0.562500   0.062500 0
  0.625000   0.250000 0
  0.625000   0.187500 0
  0.562500   0.125000 0
  0.562500   0.250000 0
  0.625000   0.312500 0
  0.562500   0.312500 0
CELLS 256 1280
4 186 155 184 157
4 181 184 153 157
4 163 161 180 150
4 169 180 167 150
4 171 167 153 150
4 175 173 155 157
4 171 153 173 157
4 181 153 161 150
4 192 188 149 158
4 187 149 178 158
4 192 149 190 176
4 191 190 177 176
4 187 126 149 176
4 159 177 126 176
4 175 155 188 158
4 186 178 155 158
4 163 194 161 198
4 181 161 189 198
4 186 184 166 136
4 181 189 184 136
4 118 166 148 136
4 208 148 189 136
4 205 202 194 198
4 208 189 202 198
4 186 166 178 147
4 187 178 144 147
4 159 126 122 139
4 142 122 141 139
4 145 141 144 139
4 118 146 166 147
4 145 144 146 147
4 187 144 126 139
4 208 202 123 133
4 128 123 137 133
4 208 123 148 127
4 118 148 125 127
4 205 131 202 133
4 128 130 123 127
4 179 125 130 127
4 135 137 131 133
4 145 146 170 113
4 151 170 121 113
4 145 170 141 172
4 142 141 174 172
4 118 125 146 113
4 151 156 170 172
4 154 174 156 172
4 179 121 125 113
4 135 119 137 117
4 128 137 110 117
4 179 130 162 109
4 128 110 130 109
4 193 162 108 109
4 112 108 110 109
4 114 116 119 117
4 112 110 116 117
4 179 162 121 160
4 151 121 106 160
4 154 156 185 211
4 151 106 156 211
4 212 185 213 211
4 201 213 106 211
4 193 197 162 160
4 201 106 197 160
4 140 216 228 217
4 222 228 215 217
4 140 228 223 143
4 225 223 227 143
4 222 221 228 143
4 159 215 177 217
4 219 227 221 143
4 191 177 216 217
4 165 232 196 234
4 207 196 230 234
4 165 196 236 200
4 225 227 232 234
4 183 236 239 200
4 207 204 196 200
4 210 239 204 200
4 219 230 227 234
4 159 122 215 241
4 222 215 243 241
4 219 221 237 244
4 222 243 221 244
4 245 237 246 244
4 242 246 243 244
4 142 107 122 241
4 242 243 107 241
4 219 237 230 247
4 207 230 132 247
4 210 204 124 134
4 207 132 204 134
4 129 124 138 134
4 249 138 132 134
4 249 132 240 247
4 245 240 237 247
4 242 107 214 220
4 248 214 250 220
4 242 214 246 253
4 245 246 254 253
4 248 252 214 253
4 251 254 252 253
4 142 174 107 220
4 154 250 174 220
4 249 240 120 256
4 115 120 255 256
4 249 120 138 260
4 129 138 111 260
4 115 259 120 260
4 251 255 254 256
4 257 111 259 260
4 245 254 240 256
4 154 185 250 261
4 248 250 264 261
4 251 252 265 266
4 268 265 269 266
4 248 264 252 266
4 263 269 264 266
4 212 262 185 261
4 263 264 262 261
4 251 265 255 270
4 115 255 274 270
4 257 259 276 281
4 277 276 279 281
4 272 279 274 281
4 268 271 265 270
4 272 274 271 270
4 115 274 259 281
4 112 116 285 282
4 278 285 280 282
4 112 285 108 152
4 114 275 116 282
4 193 108 286 152
4 278 284 285 152
4 273 280 275 282
4 283 286 284 152
4 201 197 102 288
4 104 102 287 288
4 201 102 213 103
4 193 286 197 288
4 212 213 101 103
4 104 105 102 103
4 267 101 105 103
4 283 287 286 288
4 273 100 280 99
4 278 280 95 99
4 283 284 94 93
4 278 95 284 93
4 92 94 91 93
4 96 91 95 93
4 97 98 100 99
4 96 95 98 99
4 283 94 287 90
4 104 287 87 90
4 267 105 86 85
4 104 87 105 85
4 84 86 83 85
4 88 83 87 85
4 88 87 89 90
4 92 89 94 90
4 96 98 78 82
4 164 78 231 82
4 96 78 91 80
4 92 91 79 80
4 164 235 78 80
4 182 79 235 80
4 97 81 98 82
4 224 231 81 82
4 88 89 70 76
4 73 70 77 76
4 88 70 83 72
4 84 83 71 72
4 73 74 70 72
4 182 77 79 76
4 75 71 74 72
4 92 79 89 76
4 224 226 231 233
4 164 231 195 233
4 182 235 238 199
4 209 238 203 199
4 206 203 195 199
4 218 229 226 233
4 206 195 229 233
4 164 195 235 199
4 182 238 77 69
4 73 77 66 69
4 75 74 65 64
4 73 66 74 64
4 63 65 62 64
4 67 62 66 64
4 209 68 238 69
4 67 66 68 69
4 263 262 54 60
4 57 54 61 60
4 263 54 269 56
4 268 269 55 56
4 212 101 262 60
4 57 58 54 56
4 59 55 58 56
4 267 61 101 60
4 272 271 46 52
4 49 46 53 52
4 272 46 279 48
4 277 279 47 48
4 268 55 271 52
4 49 50 46 48
4 51 47 50 48
4 59 53 55 52
4 267 86 61 45
4 57 61 42 45
4 59 58 41 40
4 57 42 58 40
4 39 41 38 40
4 43 38 42 40
4 84 44 86 45
4 43 42 44 45
4 59 41 53 37
4 49 53 34 37
4 51 50 33 32
4 49 34 50 32
4 31 33 30 32
4 35 30 34 32
4 39 36 41 37
4 35 34 36 37
4 43 44 23 28
4 25 23 29 28
4 43 23 38 24
4 84 71 44 28
4 39 38 22 24
4 25 26 23 24
4 27 22 26 24
4 75 29 71 28
4 35 36 14 20
4 17 14 21 20
4 35 14 30 16
4 31 30 15 16
4 39 22 36 20
4 17 18 14 16
4 19 15 18 16
4 27 21 22 20
4 75 65 29 13
4 25 29 10 13
4 27 26 9 8
4 25 10 26 8
4 7 9 6 8
4 11 6 10 8
4 11 10 12 13
4 63 12 65 13
4 27 9 21 5
4 17 21 3 5
4 19 18 168 2
4 17 3 18 2
4 1 168 0 2
4 258 0 3 2
4 7 4 9 5
4 258 3 4 5
CELL_TYPES 256
8
8
8
8
8
8
8
8
8
8
8
8
8
8
8
8
8
8
8
8
8
8
8
8
8
8
8
8
8
8
8
8
8
8
8
8
8
8
8
8
8
8
8
8
8
8
8
8
8
8
8
8
8
8
8
8
8
8
8
8
8
8
8
8
8
8
8
8
8
8
8
8
8
8
8
8
8
8
8
8
8
8
8
8
8
8
8
8
8
8
8
8
8
8
8
8
8
8
8
8
8
8
8
8
8
8
8
8
8
8
8
8
8
8
8
8
8
8
8
8
8
8
8
8
8
8
8
8
8
8
8
8
8
8
8
8
8
8
8
8
8
8
8
8
8
8
8
8
8
8
8
8
8
8
8
8
8
8
8
8
8
8
8
8
8
8
8
8
8
8
8
8
8
8
8
8
8
8
8
8
8
8
8
8
8
8
8
8
8
8
8
8
8
8
8
8
8
8
8
8
8
8
8
8
8
8
8
8
8
8
8
8
8
8
8
8
8
8
8
8
8
8
8
8
8
8
8
8
8
8
8
8
8
8
8
8
8
8
8
8
8
8
8
8
8
8
8
8
8
8
8
8
8
8
8
8
CELL_DATA 256
SCALARS scalar_value float 1
LOOKUP_TABLE default
-0.107317
-0.0665741
-0.0644682
-0.0106729
-0.00257843
-0.092157
-0.0547442
-0.14499
0.270314
-0.140231
-0.2311
0.00407372
-0.140346
0.00260671
0.743202
0.0958807
0.276356
0.349948
-0.0351487
0.207624
0.185405
-0.372976
-0.518432
-0.823261
-0.120323
-0.067495
-0.000826115
0.0123827
-0.00465632
0.115168
0.0108874
-0.0100919
2.37685
4.50143
1.91136
1.02452
2.48421
4.44853
4.58537
4.62869
0.50611
2.32351
0.350798
-0.0389061
0.535895
0.297946
-0.00458388
4.27313
3.79257
2.35799
0.578129
0.924691
0.054375
-0.0678875
3.49255
1.26915
0.434903
0.0507673
0.000949303
-0.00431552
0.00125849
-0.00255447
0.0231842
0.0117894
0.00031627
0.0004372
-1.76166e-05
4.40611e-05
-7.54706e-05
-0.000806598
-0.000125306
-1.00454e-05
-2.66179e-05
1.08675e-05
1.86607e-06
1.52519e-05
6.08864e-07
-3.57554e-05
2.33728e-06
3.34209e-05
-0.000288221
-0.00197032
-0.00216993
0.00256841
-0.000201716
0.000406412
-0.00246118
-0.000101561
0.000534818
-7.38417e-05
3.04773e-05
-0.000175426
5.85634e-05
-7.04702e-05
2.67237e-05
-0.000118107
-0.0118624
0.00195959
0.0043923
-0.000973087
-0.000898444
-0.00018597
0.023391
-0.00416111
-0.000500081
9.29743e-06
6.67357e-05
-4.66826e-05
2.47677e-06
5.43529e-05
-1.75949e-07
-0.00125273
-0.000236285
0.000363383
0.000120798
2.10868e-05
-0.000276419
-0.000167626
-0.000570861
0.000579023
-2.02181e-05
-2.22897e-05
6.58937e-06
1.3472e-06
-2.07864e-05
2.29401e-06
3.92455e-05
-1.15651e-05
3.15313
3.65515
0.932516
4.351
-0.0677244
1.96268
4.45611
0.991038
-0.00662534
0.118329
0.0060006
0.0632652
3.6135e-05
0.0006168
-0.00211823
0.538957
2.1682
3.78972
4.54895
4.52615
3.37784
1.05967
0.0149447
0.0621086
4.34142
1.97067
0.0454164
-0.176268
1.206
2.13988
3.52519
4.37672
0.0482067
0.0276848
0.0588681
-0.137046
0.00701263
0.00440284
0.0258508
0.0112451
2.98958
2.1209
4.341
4.40462
2.81897
0.344245
1.72276
0.853874
0.00289127
0.00734349
0.0101156
0.00211982
0.00133634
0.000674657
0.00151046
0.00138214
0.0104195
0.235062
-0.0174711
0.245722
-0.0285347
-0.0179729
0.00922393
-0.00848672
0.00113711
-0.000213203
5.38977e-05
8.67268e-05
-0.00062108
-0.00126049
-0.000584392
0.00272026
-6.08978e-05
0.000200199
3.26478e-05
-3.87862e-06
6.42492e-05
-8.97092e-05
1.757e-05
0.000140479
0.0259726
0.0162005
0.0016314
-0.000965562
-0.00272929
0.00708601
0.492002
0.0441415
0.000728439
-0.00106575
-2.75674e-05
0.000297042
-0.000448276
0.000890432
0.00126985
-0.000722683
-0.0524027
0.0786335
-0.00686342
2.76325
-0.00101038
-0.0151163
0.00538955
-0.0257582
0.000771935
0.000410594
0.000608555
-0.000174543
0.000813816
0.000161922
0.000199335
-0.00117344
-0.123596
-0.0340268
0.000420821
0.00467004
-0.000157723
0.00325741
-0.023407
-0.0301156
-0.000395488
-0.000643974
8.46303e-05
-5.44671e-06
-2.11695e-05
-0.000189036
0.00109055
-0.000295379
