# vtk DataFile Version 2.0
Unstructured Grid by M++
ASCII
DATASET UNSTRUCTURED_GRID
POINTS 289 float
  1.000000   0.937500 0
  1.000000   1.000000 0
  0.937500   0.937500 0
  0.937500   0.875000 0
  1.000000   0.812500 0
  0.937500   0.812500 0
  1.000000   0.687500 0
  1.000000   0.750000 0
  0.937500   0.687500 0
  0.937500   0.750000 0
  0.937500   0.625000 0
  1.000000   0.625000 0
  1.000000   0.562500 0
  0.937500   0.562500 0
  0.812500   0.875000 0
  0.812500   1.000000 0
  0.812500   0.937500 0
  0.875000   0.875000 0
  0.875000   0.937500 0
  0.875000   1.000000 0
  0.812500   0.812500 0
  0.875000   0.812500 0
  0.812500   0.750000 0
  0.812500   0.625000 0
  0.812500   0.687500 0
  0.875000   0.625000 0
  0.875000   0.687500 0
  0.875000   0.750000 0
  0.812500   0.562500 0
  0.875000   0.562500 0
  0.750000   0.937500 0
  0.750000   1.000000 0
  0.687500   0.937500 0
  0.687500   1.000000 0
  0.687500   0.875000 0
  0.750000   0.875000 0
  0.750000   0.812500 0
  0.687500   0.812500 0
  0.750000   0.687500 0
  0.750000   0.750000 0
  0.687500   0.687500 0
  0.687500   0.750000 0
  0.687500   0.625000 0
  0.750000   0.625000 0
  0.750000   0.562500 0
  0.687500   0.562500 0
  0.562500   0.875000 0
  0.562500   1.000000 0
  0.562500   0.937500 0
  0.625000   0.875000 0
  0.625000   0.937500 0
  0.625000   1.000000 0
  0.562500   0.812500 0
  0.625000   0.812500 0
  0.562500   0.625000 0
  0.562500   0.750000 0
  0.562500   0.687500 0
  0.625000   0.625000 0
  0.625000   0.687500 0
  0.625000   0.750000 0
  0.562500   0.562500 0
  0.625000   0.562500 0
  1.000000   0.437500 0
  1.000000   0.500000 0
  0.937500   0.437500 0
  0.937500   0.500000 0
  0.937500   0.375000 0
  1.000000   0.375000 0
  1.000000   0.312500 0
  0.937500   0.312500 0
  0.812500   0.375000 0
  0.812500   0.500000 0
  0.812500   0.437500 0
  0.875000   0.375000 0
  0.875000   0.437500 0
  0.875000   0.500000 0
  0.812500   0.312500 0
  0.875000   0.312500 0
  0.812500   0.125000 0
  0.812500   0.250000 0
  0.812500   0.187500 0
  0.812500   0.000000 0
  0.812500   0.062500 0
  0.750000   0.437500 0
  0.750000   0.500000 0
  0.687500   0.437500 0
  0.687500   0.500000 0
  0.687500   0.375000 0
  0.750000   0.375000 0
  0.750000   0.312500 0
  0.687500   0.312500 0
  0.750000   0.187500 0
  0.750000   0.250000 0
  0.687500   0.187500 0
  0.687500   0.250000 0
  0.687500   0.125000 0
  0.750000   0.125000 0
  0.750000   0.000000 0
  0.750000   0.062500 0
  0.687500   0.062500 0
  0.687500   0.000000 0
  0.562500   0.500000 0
  0.562500   0.375000 0
  0.562500   0.437500 0
  0.625000   0.375000 0
  0.625000   0.437500 0
  0.437500   0.375000 0
  0.250000   0.562500 0
  0.500000   0.187500 0
  0.437500   0.187500 0
  0.437500   0.125000 0
  0.312500   1.000000 0
  0.500000   0.125000 0
  0.312500   0.312500 0
  0.500000   0.000000 0
  0.375000   0.875000 0
  0.500000   0.062500 0
  0.437500   0.062500 0
  0.250000   0.250000 0
  0.437500   0.000000 0
  0.312500   0.875000 0
  0.375000   0.312500 0
  0.187500   0.500000 0
  0.312500   0.125000 0
  0.187500   1.000000 0
  0.312500   0.250000 0
  0.125000   0.437500 0
  0.312500   0.187500 0
  0.375000   0.125000 0
  0.250000   1.000000 0
  0.375000   0.187500 0
  0.312500   0.000000 0
  0.187500   0.875000 0
  0.312500   0.062500 0
  0.187500   0.937500 0
  0.375000   0.000000 0
  0.187500   0.187500 0
  0.375000   0.062500 0
  0.250000   0.937500 0
  0.187500   0.437500 0
  0.000000   0.625000 0
  0.250000   0.437500 0
  0.250000   0.500000 0
  0.062500   0.687500 0
  0.187500   0.375000 0
  0.250000   0.375000 0
  0.250000   0.312500 0
  0.187500   0.312500 0
  0.250000   0.187500 0
  0.062500   0.375000 0
  0.062500   0.062500 0
  0.375000   0.375000 0
  0.562500   0.187500 0
  0.062500   0.125000 0
  0.375000   0.500000 0
  0.062500   0.250000 0
  0.375000   0.437500 0
  0.062500   0.187500 0
  0.062500   0.312500 0
  0.125000   0.500000 0
  0.437500   0.312500 0
  0.125000   0.062500 0
  0.437500   0.250000 0
  0.125000   0.000000 0
  0.875000   0.125000 0
  0.000000   0.875000 0
  0.187500   0.250000 0
  0.000000   0.062500 0
  0.937500   1.000000 0
  0.000000   0.000000 0
  0.312500   0.375000 0
  0.000000   0.125000 0
  0.312500   0.437500 0
  0.000000   0.187500 0
  0.312500   0.500000 0
  0.000000   0.250000 0
  0.062500   0.437500 0
  0.062500   0.500000 0
  0.125000   0.312500 0
  0.375000   0.250000 0
  0.062500   0.000000 0
  0.125000   0.125000 0
  0.875000   0.250000 0
  0.000000   1.000000 0
  0.125000   0.187500 0
  0.437500   0.500000 0
  0.125000   0.250000 0
  0.125000   0.375000 0
  0.000000   0.312500 0
  0.187500   0.125000 0
  0.000000   0.437500 0
  0.000000   0.500000 0
  0.000000   0.375000 0
  0.500000   0.250000 0
  0.187500   0.000000 0
  0.937500   0.125000 0
  0.062500   0.875000 0
  0.500000   0.312500 0
  0.187500   0.062500 0
  0.937500   0.187500 0
  0.062500   0.937500 0
  0.500000   0.375000 0
  0.250000   0.062500 0
  1.000000   0.187500 0
  0.125000   0.937500 0
  0.250000   0.000000 0
  1.000000   0.125000 0
  0.125000   0.875000 0
  0.250000   0.125000 0
  1.000000   0.250000 0
  0.125000   1.000000 0
  0.437500   0.437500 0
  0.500000   0.500000 0
  0.500000   0.437500 0
  0.312500   0.625000 0
  0.125000   0.562500 0
  0.000000   0.562500 0
  0.062500   0.562500 0
  1.000000   0.000000 0
  0.125000   0.750000 0
  0.312500   0.562500 0
  0.125000   0.687500 0
  0.125000   0.625000 0
  0.000000   0.687500 0
  0.875000   0.000000 0
  0.000000   0.750000 0
  0.937500   0.000000 0
  0.062500   0.750000 0
  0.062500   0.625000 0
  1.000000   0.062500 0
  0.125000   0.812500 0
  0.875000   0.062500 0
  0.000000   0.812500 0
  0.937500   0.062500 0
  0.062500   0.812500 0
  0.875000   0.187500 0
  0.000000   0.937500 0
  0.187500   0.750000 0
  0.937500   0.250000 0
  0.062500   1.000000 0
  0.250000   0.812500 0
  0.187500   0.562500 0
  0.250000   0.625000 0
  0.187500   0.625000 0
  0.187500   0.687500 0
  0.250000   0.750000 0
  0.250000   0.687500 0
  0.187500   0.812500 0
  0.375000   0.625000 0
  0.250000   0.875000 0
  0.375000   0.562500 0
  0.375000   0.750000 0
  0.375000   0.687500 0
  0.312500   0.687500 0
  0.312500   0.750000 0
  0.375000   0.812500 0
  0.312500   0.812500 0
  0.375000   1.000000 0
  1.000000   0.875000 0
  0.375000   0.937500 0
  0.312500   0.937500 0
  0.437500   0.562500 0
  0.500000   0.562500 0
  0.500000   0.625000 0
  0.437500   0.625000 0
  0.437500   0.750000 0
  0.437500   0.687500 0
  0.625000   0.500000 0
  0.500000   0.750000 0
  0.500000   0.687500 0
  0.437500   0.812500 0
  0.500000   0.812500 0
  0.500000   0.875000 0
  0.625000   0.000000 0
  0.437500   0.875000 0
  0.562500   0.000000 0
  0.437500   1.000000 0
  0.500000   1.000000 0
  0.625000   0.125000 0
  0.500000   0.937500 0
  0.625000   0.062500 0
  0.437500   0.937500 0
  0.562500   0.062500 0
  0.625000   0.250000 0
  0.625000   0.187500 0
  0.562500   0.125000 0
  0.562500   0.250000 0
  0.625000   0.312500 0
  0.562500   0.312500 0
CELLS 256 1280
4 186 155 184 157
4 181 184 153 157
4 163 161 180 150
4 169 180 167 150
4 171 167 153 150
4 175 173 155 157
4 171 153 173 157
4 181 153 161 150
4 192 188 149 158
4 187 149 178 158
4 192 149 190 176
4 191 190 177 176
4 187 126 149 176
4 159 177 126 176
4 175 155 188 158
4 186 178 155 158
4 163 194 161 198
4 181 161 189 198
4 186 184 166 136
4 181 189 184 136
4 118 166 148 136
4 208 148 189 136
4 205 202 194 198
4 208 189 202 198
4 186 166 178 147
4 187 178 144 147
4 159 126 122 139
4 142 122 141 139
4 145 141 144 139
4 118 146 166 147
4 145 144 146 147
4 187 144 126 139
4 208 202 123 133
4 128 123 137 133
4 208 123 148 127
4 118 148 125 127
4 205 131 202 133
4 128 130 123 127
4 179 125 130 127
4 135 137 131 133
4 145 146 170 113
4 151 170 121 113
4 145 170 141 172
4 142 141 174 172
4 118 125 146 113
4 151 156 170 172
4 154 174 156 172
4 179 121 125 113
4 135 119 137 117
4 128 137 110 117
4 179 130 162 109
4 128 110 130 109
4 193 162 108 109
4 112 108 110 109
4 114 116 119 117
4 112 110 116 117
4 179 162 121 160
4 151 121 106 160
4 154 156 185 211
4 151 106 156 211
4 212 185 213 211
4 201 213 106 211
4 193 197 162 160
4 201 106 197 160
4 140 216 228 217
4 222 228 215 217
4 140 228 223 143
4 225 223 227 143
4 222 221 228 143
4 159 215 177 217
4 219 227 221 143
4 191 177 216 217
4 165 232 196 234
4 207 196 230 234
4 165 196 236 200
4 225 227 232 234
4 183 236 239 200
4 207 204 196 200
4 210 239 204 200
4 219 230 227 234
4 159 122 215 241
4 222 215 243 241
4 219 221 237 244
4 222 243 221 244
4 245 237 246 244
4 242 246 243 244
4 142 107 122 241
4 242 243 107 241
4 219 237 230 247
4 207 230 132 247
4 210 204 124 134
4 207 132 204 134
4 129 124 138 134
4 249 138 132 134
4 249 132 240 247
4 245 240 237 247
4 242 107 214 220
4 248 214 250 220
4 242 214 246 253
4 245 246 254 253
4 248 252 214 253
4 251 254 252 253
4 142 174 107 220
4 154 250 174 220
4 249 240 120 256
4 115 120 255 256
4 249 120 138 260
4 129 138 111 260
4 115 259 120 260
4 251 255 254 256
4 257 111 259 260
4 245 254 240 256
4 154 185 250 261
4 248 250 264 261
4 251 252 265 266
4 268 265 269 266
4 248 264 252 266
4 263 269 264 266
4 212 262 185 261
4 263 264 262 261
4 251 265 255 270
4 115 255 274 270
4 257 259 276 281
4 277 276 279 281
4 272 279 274 281
4 268 271 265 270
4 272 274 271 270
4 115 274 259 281
4 112 116 285 282
4 278 285 280 282
4 112 285 108 152
4 114 275 116 282
4 193 108 286 152
4 278 284 285 152
4 273 280 275 282
4 283 286 284 152
4 201 197 102 288
4 104 102 287 288
4 201 102 213 103
4 193 286 197 288
4 212 213 101 103
4 104 105 102 103
4 267 101 105 103
4 283 287 286 288
4 273 100 280 99
4 278 280 95 99
4 283 284 94 93
4 278 95 284 93
4 92 94 91 93
4 96 91 95 93
4 97 98 100 99
4 96 95 98 99
4 283 94 287 90
4 104 287 87 90
4 267 105 86 85
4 104 87 105 85
4 84 86 83 85
4 88 83 87 85
4 88 87 89 90
4 92 89 94 90
4 96 98 78 82
4 164 78 231 82
4 96 78 91 80
4 92 91 79 80
4 164 235 78 80
4 182 79 235 80
4 97 81 98 82
4 224 231 81 82
4 88 89 70 76
4 73 70 77 76
4 88 70 83 72
4 84 83 71 72
4 73 74 70 72
4 182 77 79 76
4 75 71 74 72
4 92 79 89 76
4 224 226 231 233
4 164 231 195 233
4 182 235 238 199
4 209 238 203 199
4 206 203 195 199
4 218 229 226 233
4 206 195 229 233
4 164 195 235 199
4 182 238 77 69
4 73 77 66 69
4 75 74 65 64
4 73 66 74 64
4 63 65 62 64
4 67 62 66 64
4 209 68 238 69
4 67 66 68 69
4 263 262 54 60
4 57 54 61 60
4 263 54 269 56
4 268 269 55 56
4 212 101 262 60
4 57 58 54 56
4 59 55 58 56
4 267 61 101 60
4 272 271 46 52
4 49 46 53 52
4 272 46 279 48
4 277 279 47 48
4 268 55 271 52
4 49 50 46 48
4 51 47 50 48
4 59 53 55 52
4 267 86 61 45
4 57 61 42 45
4 59 58 41 40
4 57 42 58 40
4 39 41 38 40
4 43 38 42 40
4 84 44 86 45
4 43 42 44 45
4 59 41 53 37
4 49 53 34 37
4 51 50 33 32
4 49 34 50 32
4 31 33 30 32
4 35 30 34 32
4 39 36 41 37
4 35 34 36 37
4 43 44 23 28
4 25 23 29 28
4 43 23 38 24
4 84 71 44 28
4 39 38 22 24
4 25 26 23 24
4 27 22 26 24
4 75 29 71 28
4 35 36 14 20
4 17 14 21 20
4 35 14 30 16
4 31 30 15 16
4 39 22 36 20
4 17 18 14 16
4 19 15 18 16
4 27 21 22 20
4 75 65 29 13
4 25 29 10 13
4 27 26 9 8
4 25 10 26 8
4 7 9 6 8
4 11 6 10 8
4 11 10 12 13
4 63 12 65 13
4 27 9 21 5
4 17 21 3 5
4 19 18 168 2
4 17 3 18 2
4 1 168 0 2
4 258 0 3 2
4 7 4 9 5
4 258 3 4 5
CELL_TYPES 256
8
8
8
8
8
8
8
8
8
8
8
8
8
8
8
8
8
8
8
8
8
8
8
8
8
8
8
8
8
8
8
8
8
8
8
8
8
8
8
8
8
8
8
8
8
8
8
8
8
8
8
8
8
8
8
8
8
8
8
8
8
8
8
8
8
8
8
8
8
8
8
8
8
8
8
8
8
8
8
8
8
8
8
8
8
8
8
8
8
8
8
8
8
8
8
8
8
8
8
8
8
8
8
8
8
8
8
8
8
8
8
8
8
8
8
8
8
8
8
8
8
8
8
8
8
8
8
8
8
8
8
8
8
8
8
8
8
8
8
8
8
8
8
8
8
8
8
8
8
8
8
8
8
8
8
8
8
8
8
8
8
8
8
8
8
8
8
8
8
8
8
8
8
8
8
8
8
8
8
8
8
8
8
8
8
8
8
8
8
8
8
8
8
8
8
8
8
8
8
8
8
8
8
8
8
8
8
8
8
8
8
8
8
8
8
8
8
8
8
8
8
8
8
8
8
8
8
8
8
8
8
8
8
8
8
8
8
8
8
8
8
8
8
8
8
8
8
8
8
8
8
8
8
8
8
8
CELL_DATA 256
SCALARS scalar_value float 1
LOOKUP_TABLE default
-0.0106434
-0.000347762
-2.96305e-06
-7.14698e-07
-8.10472e-06
-0.00250106
-5.13912e-05
-4.37319e-05
-0.0210604
-0.0214233
-0.0630973
-0.0686834
0.0496753
0.0351615
-0.00818097
-0.0169095
1.25852e-05
-0.000284035
0.0305359
0.00753962
0.42909
-0.00423694
0.000193691
0.000833213
0.341425
0.663396
1.70715
4.34168
3.93904
2.18834
3.44984
0.913451
0.00364312
0.000495388
0.0107503
0.197844
-0.000180138
-0.00185897
0.0110748
-0.000146924
2.37784
0.820382
3.73164
4.44446
0.905083
3.33324
4.46655
-0.0219637
0.000364922
-0.000560789
0.0751241
0.0107253
0.151941
0.011
0.000114592
-0.0014151
1.30514
3.40941
4.64055
4.49622
4.63989
4.64851
2.2689
4.32772
0.0661083
0.0552205
0.0413815
0.0173405
0.0989671
0.0349468
0.0772976
0.110596
0.00104547
0.000683438
-0.0002681
0.000261526
1.82803e-05
0.00189131
1.58924e-05
0.00629671
2.52203
3.4444
2.16508
3.6972
0.546191
2.96083
4.55416
4.36038
0.201254
-0.00121859
-0.0018776
-0.00257814
7.84927e-05
0.00413369
-0.00943687
-0.0104594
4.62609
4.61599
4.45462
1.86676
4.08728
1.13634
4.64376
4.64746
-0.00964075
-0.0100297
0.00222756
0.000954998
-0.000935261
-0.0228963
0.00125812
-0.0298835
4.59742
4.06655
0.207228
-0.0520334
2.26015
1.10159
4.51815
3.48225
-0.000821358
-0.00894262
0.000393191
0.000243199
0.000836388
0.0210038
-0.00691722
0.00103197
-0.000271718
-0.000192927
0.00632096
-7.90695e-05
0.0102079
0.00613803
-0.000101238
-0.00542394
2.83825
2.67963
4.34669
0.728108
4.65078
4.26997
4.63893
0.631067
-3.66893e-05
0.000114781
0.000215562
-0.000255826
7.08734e-06
-0.000132008
9.12516e-07
-1.26298e-05
0.00890505
0.041638
4.49123
2.34308
4.30462
2.17306
0.0197721
0.00955985
2.30633e-06
-3.04152e-07
-1.88863e-06
-5.34918e-05
-1.49537e-06
-4.64008e-06
3.95428e-07
-1.71156e-08
0.00192543
-0.000312886
0.0338986
0.561385
0.00312464
0.000174237
0.262958
0.000155382
-2.29661e-08
7.01077e-08
1.68162e-06
3.95706e-07
9.65817e-08
9.1218e-10
1.94473e-08
1.58626e-06
-4.62242e-05
-0.000168859
0.0105334
0.00358902
-0.000494621
0.000383156
-3.24572e-06
-5.34378e-06
3.87856
3.85657
1.35183
-0.0395097
4.61734
1.21136
-0.0314645
4.62153
-0.00296155
0.00080234
-0.00090005
0.000643652
0.0146243
-0.00189693
0.000544741
0.00923731
4.63615
4.57021
1.23261
3.61316
1.76159
3.97625
4.57886
4.60124
0.0076419
0.0022017
-0.00024013
0.00074205
-1.91529e-05
0.00121405
0.0416271
0.0082116
4.41729
3.42411
4.43045
2.86642
3.69302
2.8877
0.757759
2.37465
0.0138291
0.0155169
-0.00442859
-0.00156979
0.860461
0.00308243
0.000521056
-0.0101856
0.609628
0.922496
-0.0633203
0.314369
-0.0686487
0.0140767
-0.0356546
-0.0152414
0.00256555
-0.00162071
-6.76963e-05
-1.2307e-05
-0.000145761
-0.000483381
-0.00495379
-0.00085175
