# vtk DataFile Version 2.0
Unstructured Grid by M++
ASCII
DATASET UNSTRUCTURED_GRID
POINTS 289 float
  1.000000   0.937500 0
  1.000000   1.000000 0
  0.937500   0.937500 0
  0.937500   0.875000 0
  1.000000   0.812500 0
  0.937500   0.812500 0
  1.000000   0.687500 0
  1.000000   0.750000 0
  0.937500   0.687500 0
  0.937500   0.750000 0
  0.937500   0.625000 0
  1.000000   0.625000 0
  1.000000   0.562500 0
  0.937500   0.562500 0
  0.812500   0.875000 0
  0.812500   1.000000 0
  0.812500   0.937500 0
  0.875000   0.875000 0
  0.875000   0.937500 0
  0.875000   1.000000 0
  0.812500   0.812500 0
  0.875000   0.812500 0
  0.812500   0.750000 0
  0.812500   0.625000 0
  0.812500   0.687500 0
  0.875000   0.625000 0
  0.875000   0.687500 0
  0.875000   0.750000 0
  0.812500   0.562500 0
  0.875000   0.562500 0
  0.750000   0.937500 0
  0.750000   1.000000 0
  0.687500   0.937500 0
  0.687500   1.000000 0
  0.687500   0.875000 0
  0.750000   0.875000 0
  0.750000   0.812500 0
  0.687500   0.812500 0
  0.750000   0.687500 0
  0.750000   0.750000 0
  0.687500   0.687500 0
  0.687500   0.750000 0
  0.687500   0.625000 0
  0.750000   0.625000 0
  0.750000   0.562500 0
  0.687500   0.562500 0
  0.562500   0.875000 0
  0.562500   1.000000 0
  0.562500   0.937500 0
  0.625000   0.875000 0
  0.625000   0.937500 0
  0.625000   1.000000 0
  0.562500   0.812500 0
  0.625000   0.812500 0
  0.562500   0.625000 0
  0.562500   0.750000 0
  0.562500   0.687500 0
  0.625000   0.625000 0
  0.625000   0.687500 0
  0.625000   0.750000 0
  0.562500   0.562500 0
  0.625000   0.562500 0
  1.000000   0.437500 0
  1.000000   0.500000 0
  0.937500   0.437500 0
  0.937500   0.500000 0
  0.937500   0.375000 0
  1.000000   0.375000 0
  1.000000   0.312500 0
  0.937500   0.312500 0
  0.812500   0.375000 0
  0.812500   0.500000 0
  0.812500   0.437500 0
  0.875000   0.375000 0
  0.875000   0.437500 0
  0.875000   0.500000 0
  0.812500   0.312500 0
  0.875000   0.312500 0
  0.812500   0.125000 0
  0.812500   0.250000 0
  0.812500   0.187500 0
  0.812500   0.000000 0
  0.812500   0.062500 0
  0.750000   0.437500 0
  0.750000   0.500000 0
  0.687500   0.437500 0
  0.687500   0.500000 0
  0.687500   0.375000 0
  0.750000   0.375000 0
  0.750000   0.312500 0
  0.687500   0.312500 0
  0.750000   0.187500 0
  0.750000   0.250000 0
  0.687500   0.187500 0
  0.687500   0.250000 0
  0.687500   0.125000 0
  0.750000   0.125000 0
  0.750000   0.000000 0
  0.750000   0.062500 0
  0.687500   0.062500 0
  0.687500   0.000000 0
  0.562500   0.500000 0
  0.562500   0.375000 0
  0.562500   0.437500 0
  0.625000   0.375000 0
  0.625000   0.437500 0
  0.437500   0.375000 0
  0.250000   0.562500 0
  0.500000   0.187500 0
  0.437500   0.187500 0
  0.437500   0.125000 0
  0.312500   1.000000 0
  0.500000   0.125000 0
  0.312500   0.312500 0
  0.500000   0.000000 0
  0.375000   0.875000 0
  0.500000   0.062500 0
  0.437500   0.062500 0
  0.250000   0.250000 0
  0.437500   0.000000 0
  0.312500   0.875000 0
  0.375000   0.312500 0
  0.187500   0.500000 0
  0.312500   0.125000 0
  0.187500   1.000000 0
  0.312500   0.250000 0
  0.125000   0.437500 0
  0.312500   0.187500 0
  0.375000   0.125000 0
  0.250000   1.000000 0
  0.375000   0.187500 0
  0.312500   0.000000 0
  0.187500   0.875000 0
  0.312500   0.062500 0
  0.187500   0.937500 0
  0.375000   0.000000 0
  0.187500   0.187500 0
  0.375000   0.062500 0
  0.250000   0.937500 0
  0.187500   0.437500 0
  0.000000   0.625000 0
  0.250000   0.437500 0
  0.250000   0.500000 0
  0.062500   0.687500 0
  0.187500   0.375000 0
  0.250000   0.375000 0
  0.250000   0.312500 0
  0.187500   0.312500 0
  0.250000   0.187500 0
  0.062500   0.375000 0
  0.062500   0.062500 0
  0.375000   0.375000 0
  0.562500   0.187500 0
  0.062500   0.125000 0
  0.375000   0.500000 0
  0.062500   0.250000 0
  0.375000   0.437500 0
  0.062500   0.187500 0
  0.062500   0.312500 0
  0.125000   0.500000 0
  0.437500   0.312500 0
  0.125000   0.062500 0
  0.437500   0.250000 0
  0.125000   0.000000 0
  0.875000   0.125000 0
  0.000000   0.875000 0
  0.187500   0.250000 0
  0.000000   0.062500 0
  0.937500   1.000000 0
  0.000000   0.000000 0
  0.312500   0.375000 0
  0.000000   0.125000 0
  0.312500   0.437500 0
  0.000000   0.187500 0
  0.312500   0.500000 0
  0.000000   0.250000 0
  0.062500   0.437500 0
  0.062500   0.500000 0
  0.125000   0.312500 0
  0.375000   0.250000 0
  0.062500   0.000000 0
  0.125000   0.125000 0
  0.875000   0.250000 0
  0.000000   1.000000 0
  0.125000   0.187500 0
  0.437500   0.500000 0
  0.125000   0.250000 0
  0.125000   0.375000 0
  0.000000   0.312500 0
  0.187500   0.125000 0
  0.000000   0.437500 0
  0.000000   0.500000 0
  0.000000   0.375000 0
  0.500000   0.250000 0
  0.187500   0.000000 0
  0.937500   0.125000 0
  0.062500   0.875000 0
  0.500000   0.312500 0
  0.187500   0.062500 0
  0.937500   0.187500 0
  0.062500   0.937500 0
  0.500000   0.375000 0
  0.250000   0.062500 0
  1.000000   0.187500 0
  0.125000   0.937500 0
  0.250000   0.000000 0
  1.000000   0.125000 0
  0.125000   0.875000 0
  0.250000   0.125000 0
  1.000000   0.250000 0
  0.125000   1.000000 0
  0.437500   0.437500 0
  0.500000   0.500000 0
  0.500000   0.437500 0
  0.312500   0.625000 0
  0.125000   0.562500 0
  0.000000   0.562500 0
  0.062500   0.562500 0
  1.000000   0.000000 0
  0.125000   0.750000 0
  0.312500   0.562500 0
  0.125000   0.687500 0
  0.125000   0.625000 0
  0.000000   0.687500 0
  0.875000   0.000000 0
  0.000000   0.750000 0
  0.937500   0.000000 0
  0.062500   0.750000 0
  0.062500   0.625000 0
  1.000000   0.062500 0
  0.125000   0.812500 0
  0.875000   0.062500 0
  0.000000   0.812500 0
  0.937500   0.062500 0
  0.062500   0.812500 0
  0.875000   0.187500 0
  0.000000   0.937500 0
  0.187500   0.750000 0
  0.937500   0.250000 0
  0.062500   1.000000 0
  0.250000   0.812500 0
  0.187500   0.562500 0
  0.250000   0.625000 0
  0.187500   0.625000 0
  0.187500   0.687500 0
  0.250000   0.750000 0
  0.250000   0.687500 0
  0.187500   0.812500 0
  0.375000   0.625000 0
  0.250000   0.875000 0
  0.375000   0.562500 0
  0.375000   0.750000 0
  0.375000   0.687500 0
  0.312500   0.687500 0
  0.312500   0.750000 0
  0.375000   0.812500 0
  0.312500   0.812500 0
  0.375000   1.000000 0
  1.000000   0.875000 0
  0.375000   0.937500 0
  0.312500   0.937500 0
  0.437500   0.562500 0
  0.500000   0.562500 0
  0.500000   0.625000 0
  0.437500   0.625000 0
  0.437500   0.750000 0
  0.437500   0.687500 0
  0.625000   0.500000 0
  0.500000   0.750000 0
  0.500000   0.687500 0
  0.437500   0.812500 0
  0.500000   0.812500 0
  0.500000   0.875000 0
  0.625000   0.000000 0
  0.437500   0.875000 0
  0.562500   0.000000 0
  0.437500   1.000000 0
  0.500000   1.000000 0
  0.625000   0.125000 0
  0.500000   0.937500 0
  0.625000   0.062500 0
  0.437500   0.937500 0
  0.562500   0.062500 0
  0.625000   0.250000 0
  0.625000   0.187500 0
  0.562500   0.125000 0
  0.562500   0.250000 0
  0.625000   0.312500 0
  0.562500   0.312500 0
CELLS 256 1280
4 186 155 184 157
4 181 184 153 157
4 163 161 180 150
4 169 180 167 150
4 171 167 153 150
4 175 173 155 157
4 171 153 173 157
4 181 153 161 150
4 192 188 149 158
4 187 149 178 158
4 192 149 190 176
4 191 190 177 176
4 187 126 149 176
4 159 177 126 176
4 175 155 188 158
4 186 178 155 158
4 163 194 161 198
4 181 161 189 198
4 186 184 166 136
4 181 189 184 136
4 118 166 148 136
4 208 148 189 136
4 205 202 194 198
4 208 189 202 198
4 186 166 178 147
4 187 178 144 147
4 159 126 122 139
4 142 122 141 139
4 145 141 144 139
4 118 146 166 147
4 145 144 146 147
4 187 144 126 139
4 208 202 123 133
4 128 123 137 133
4 208 123 148 127
4 118 148 125 127
4 205 131 202 133
4 128 130 123 127
4 179 125 130 127
4 135 137 131 133
4 145 146 170 113
4 151 170 121 113
4 145 170 141 172
4 142 141 174 172
4 118 125 146 113
4 151 156 170 172
4 154 174 156 172
4 179 121 125 113
4 135 119 137 117
4 128 137 110 117
4 179 130 162 109
4 128 110 130 109
4 193 162 108 109
4 112 108 110 109
4 114 116 119 117
4 112 110 116 117
4 179 162 121 160
4 151 121 106 160
4 154 156 185 211
4 151 106 156 211
4 212 185 213 211
4 201 213 106 211
4 193 197 162 160
4 201 106 197 160
4 140 216 228 217
4 222 228 215 217
4 140 228 223 143
4 225 223 227 143
4 222 221 228 143
4 159 215 177 217
4 219 227 221 143
4 191 177 216 217
4 165 232 196 234
4 207 196 230 234
4 165 196 236 200
4 225 227 232 234
4 183 236 239 200
4 207 204 196 200
4 210 239 204 200
4 219 230 227 234
4 159 122 215 241
4 222 215 243 241
4 219 221 237 244
4 222 243 221 244
4 245 237 246 244
4 242 246 243 244
4 142 107 122 241
4 242 243 107 241
4 219 237 230 247
4 207 230 132 247
4 210 204 124 134
4 207 132 204 134
4 129 124 138 134
4 249 138 132 134
4 249 132 240 247
4 245 240 237 247
4 242 107 214 220
4 248 214 250 220
4 242 214 246 253
4 245 246 254 253
4 248 252 214 253
4 251 254 252 253
4 142 174 107 220
4 154 250 174 220
4 249 240 120 256
4 115 120 255 256
4 249 120 138 260
4 129 138 111 260
4 115 259 120 260
4 251 255 254 256
4 257 111 259 260
4 245 254 240 256
4 154 185 250 261
4 248 250 264 261
4 251 252 265 266
4 268 265 269 266
4 248 264 252 266
4 263 269 264 266
4 212 262 185 261
4 263 264 262 261
4 251 265 255 270
4 115 255 274 270
4 257 259 276 281
4 277 276 279 281
4 272 279 274 281
4 268 271 265 270
4 272 274 271 270
4 115 274 259 281
4 112 116 285 282
4 278 285 280 282
4 112 285 108 152
4 114 275 116 282
4 193 108 286 152
4 278 284 285 152
4 273 280 275 282
4 283 286 284 152
4 201 197 102 288
4 104 102 287 288
4 201 102 213 103
4 193 286 197 288
4 212 213 101 103
4 104 105 102 103
4 267 101 105 103
4 283 287 286 288
4 273 100 280 99
4 278 280 95 99
4 283 284 94 93
4 278 95 284 93
4 92 94 91 93
4 96 91 95 93
4 97 98 100 99
4 96 95 98 99
4 283 94 287 90
4 104 287 87 90
4 267 105 86 85
4 104 87 105 85
4 84 86 83 85
4 88 83 87 85
4 88 87 89 90
4 92 89 94 90
4 96 98 78 82
4 164 78 231 82
4 96 78 91 80
4 92 91 79 80
4 164 235 78 80
4 182 79 235 80
4 97 81 98 82
4 224 231 81 82
4 88 89 70 76
4 73 70 77 76
4 88 70 83 72
4 84 83 71 72
4 73 74 70 72
4 182 77 79 76
4 75 71 74 72
4 92 79 89 76
4 224 226 231 233
4 164 231 195 233
4 182 235 238 199
4 209 238 203 199
4 206 203 195 199
4 218 229 226 233
4 206 195 229 233
4 164 195 235 199
4 182 238 77 69
4 73 77 66 69
4 75 74 65 64
4 73 66 74 64
4 63 65 62 64
4 67 62 66 64
4 209 68 238 69
4 67 66 68 69
4 263 262 54 60
4 57 54 61 60
4 263 54 269 56
4 268 269 55 56
4 212 101 262 60
4 57 58 54 56
4 59 55 58 56
4 267 61 101 60
4 272 271 46 52
4 49 46 53 52
4 272 46 279 48
4 277 279 47 48
4 268 55 271 52
4 49 50 46 48
4 51 47 50 48
4 59 53 55 52
4 267 86 61 45
4 57 61 42 45
4 59 58 41 40
4 57 42 58 40
4 39 41 38 40
4 43 38 42 40
4 84 44 86 45
4 43 42 44 45
4 59 41 53 37
4 49 53 34 37
4 51 50 33 32
4 49 34 50 32
4 31 33 30 32
4 35 30 34 32
4 39 36 41 37
4 35 34 36 37
4 43 44 23 28
4 25 23 29 28
4 43 23 38 24
4 84 71 44 28
4 39 38 22 24
4 25 26 23 24
4 27 22 26 24
4 75 29 71 28
4 35 36 14 20
4 17 14 21 20
4 35 14 30 16
4 31 30 15 16
4 39 22 36 20
4 17 18 14 16
4 19 15 18 16
4 27 21 22 20
4 75 65 29 13
4 25 29 10 13
4 27 26 9 8
4 25 10 26 8
4 7 9 6 8
4 11 6 10 8
4 11 10 12 13
4 63 12 65 13
4 27 9 21 5
4 17 21 3 5
4 19 18 168 2
4 17 3 18 2
4 1 168 0 2
4 258 0 3 2
4 7 4 9 5
4 258 3 4 5
CELL_TYPES 256
8
8
8
8
8
8
8
8
8
8
8
8
8
8
8
8
8
8
8
8
8
8
8
8
8
8
8
8
8
8
8
8
8
8
8
8
8
8
8
8
8
8
8
8
8
8
8
8
8
8
8
8
8
8
8
8
8
8
8
8
8
8
8
8
8
8
8
8
8
8
8
8
8
8
8
8
8
8
8
8
8
8
8
8
8
8
8
8
8
8
8
8
8
8
8
8
8
8
8
8
8
8
8
8
8
8
8
8
8
8
8
8
8
8
8
8
8
8
8
8
8
8
8
8
8
8
8
8
8
8
8
8
8
8
8
8
8
8
8
8
8
8
8
8
8
8
8
8
8
8
8
8
8
8
8
8
8
8
8
8
8
8
8
8
8
8
8
8
8
8
8
8
8
8
8
8
8
8
8
8
8
8
8
8
8
8
8
8
8
8
8
8
8
8
8
8
8
8
8
8
8
8
8
8
8
8
8
8
8
8
8
8
8
8
8
8
8
8
8
8
8
8
8
8
8
8
8
8
8
8
8
8
8
8
8
8
8
8
8
8
8
8
8
8
8
8
8
8
8
8
8
8
8
8
8
8
CELL_DATA 256
SCALARS scalar_value float 1
LOOKUP_TABLE default
0.218248
0.20937
-0.0801089
-0.00593486
-0.147936
-0.199832
1.05687
-0.171193
-0.027136
-0.0152304
-0.0108986
-0.0146872
0.0168004
0.00226136
0.00529196
-0.0191916
-0.0972222
-0.035694
-0.00910166
-0.0189115
-0.0004844
-0.00202514
-0.00915143
0.00663217
-0.00322617
0.00422409
0.00109685
-0.000225508
-0.000694556
-0.000199448
-0.000577589
0.00582468
-0.00247894
0.0200532
0.0047351
-0.00102563
-0.00387435
-0.00176076
-0.0100643
-0.000595019
0.00126655
-0.00122593
-0.00124416
0.000374871
-0.00113202
-0.00107535
0.00133568
0.00664066
0.00284898
0.00211939
-0.000172572
-0.000998535
-0.000406975
-0.000329406
-0.00100163
0.00118536
0.00114254
-0.000146709
3.66524e-05
-8.24135e-05
2.38567e-05
1.50886e-05
-6.95e-06
-6.6268e-05
-0.000518267
0.000132747
-9.85406e-05
-3.25144e-05
3.60703e-05
0.000470582
7.11234e-06
-0.00310917
-8.11254e-06
-6.29409e-06
-2.84723e-06
-1.58187e-05
-7.23638e-07
-3.21639e-06
-8.79263e-07
-3.60301e-06
-3.30181e-07
-9.70531e-05
4.86504e-05
-6.27398e-05
2.41105e-05
-5.06134e-06
0.000257776
-6.46198e-05
-4.12553e-05
8.69732e-07
-8.72882e-07
7.82686e-06
-1.15043e-06
-7.24557e-08
8.89146e-06
-2.10201e-05
0.000445295
0.000324593
-4.47752e-05
-7.29035e-05
-0.000179858
4.88612e-06
-0.00108991
-0.000878449
9.33843e-06
-1.77228e-06
3.74155e-06
5.28947e-07
-2.05419e-06
1.82949e-05
-1.14314e-06
2.53237e-05
1.3501e-06
-2.1753e-07
5.45901e-06
2.80035e-07
-5.56897e-06
8.64902e-06
3.67788e-06
-1.523e-05
-2.45722e-06
3.59911e-07
1.37833e-07
-7.62565e-08
5.7106e-07
8.00308e-07
-1.10566e-06
-5.45446e-08
0.00386415
0.0163355
-0.000790373
0.000774266
-0.00150215
0.0131163
-0.00657493
-0.00513516
-0.000416764
0.00111923
-0.000133549
0.000679958
0.00038207
0.000166474
-0.000500163
-0.00154156
0.456067
0.232119
0.135737
0.14732
2.83793
3.7478
0.207738
2.48996
0.138166
0.0343223
0.001801
-0.00217153
0.00378356
-0.00132231
0.110168
0.938197
1.01731
0.0569849
3.18106
4.17007
0.691641
2.33435
-0.101497
-0.0567766
2.93055
-0.167964
0.619754
-0.242163
0.151464
1.03746
0.0213328
4.05288
-0.0309676
0.0239686
0.0767256
-0.0397672
0.01875
-0.00957343
0.020986
0.110804
-0.0162643
-0.241965
0.00630333
-0.0032389
0.0093191
-0.0951667
-0.00182703
-0.0439318
9.88484e-05
-0.000438479
3.8412e-06
-9.71486e-06
-0.000203982
0.00013206
2.81753e-05
0.000526313
-4.29396e-06
3.03225e-05
2.59676e-07
2.68072e-07
5.82912e-06
-1.77118e-05
4.13172e-08
-3.84378e-05
0.000410822
0.000858794
0.000125504
-0.000589462
0.000597942
0.00456781
-0.00137914
0.00365798
-0.000516936
1.40263e-05
8.83015e-06
0.000179688
7.5571e-05
0.000215741
-0.000262667
0.000287406
0.00729273
-0.00441627
-0.0015391
0.00198705
-0.00370483
-0.00191061
0.00301836
0.00512984
0.00041586
-0.000935849
-0.000174794
0.00011438
-0.00111146
-0.000121272
8.5247e-06
0.000155803
-0.00668206
-0.00345392
0.00152991
0.000628499
0.000322376
0.000110001
-0.00447091
0.000256686
0.000494657
0.000145237
-3.58532e-05
6.37813e-05
-0.000139558
0.000105909
0.00030197
1.05744e-05
