# vtk DataFile Version 2.0
Unstructured Grid by M++
ASCII
DATASET UNSTRUCTURED_GRID
POINTS 1089 float
  0.968750   0.906250 0
  0.968750   0.937500 0
  1.000000   0.906250 0
  1.000000   0.937500 0
  1.000000   0.968750 0
  0.906250   0.906250 0
  0.906250   0.875000 0
  0.906250   0.812500 0
  0.906250   0.843750 0
  0.937500   0.906250 0
  0.937500   0.937500 0
  0.937500   0.843750 0
  0.937500   0.875000 0
  0.968750   0.875000 0
  0.968750   0.656250 0
  0.968750   0.687500 0
  1.000000   0.656250 0
  1.000000   0.625000 0
  1.000000   0.687500 0
  0.906250   0.656250 0
  0.906250   0.687500 0
  0.906250   0.625000 0
  0.906250   0.531250 0
  0.906250   0.562500 0
  0.906250   0.593750 0
  0.937500   0.656250 0
  0.937500   0.687500 0
  0.937500   0.531250 0
  0.937500   0.562500 0
  0.937500   0.593750 0
  0.937500   0.625000 0
  0.968750   0.625000 0
  0.968750   0.593750 0
  1.000000   0.593750 0
  0.968750   0.562500 0
  1.000000   0.562500 0
  1.000000   0.531250 0
  0.968750   0.531250 0
  0.781250   1.000000 0
  0.812500   0.781250 0
  0.812500   0.812500 0
  0.875000   0.843750 0
  0.875000   0.812500 0
  0.875000   0.875000 0
  0.781250   0.781250 0
  0.843750   0.843750 0
  0.843750   0.812500 0
  0.875000   0.781250 0
  0.843750   0.781250 0
  0.781250   0.750000 0
  0.781250   0.718750 0
  0.781250   0.687500 0
  0.812500   0.750000 0
  0.812500   0.718750 0
  0.812500   0.531250 0
  0.812500   0.687500 0
  0.812500   0.656250 0
  0.812500   0.562500 0
  0.812500   0.593750 0
  0.812500   0.625000 0
  0.875000   0.687500 0
  0.875000   0.656250 0
  0.875000   0.593750 0
  0.875000   0.562500 0
  0.875000   0.625000 0
  0.781250   0.531250 0
  0.781250   0.562500 0
  0.781250   0.625000 0
  0.781250   0.593750 0
  0.781250   0.656250 0
  0.843750   0.656250 0
  0.843750   0.593750 0
  0.843750   0.562500 0
  0.843750   0.625000 0
  0.843750   0.687500 0
  0.843750   0.750000 0
  0.875000   0.531250 0
  0.843750   0.531250 0
  0.656250   0.906250 0
  0.656250   0.937500 0
  0.656250   1.000000 0
  0.656250   0.968750 0
  0.687500   1.000000 0
  0.687500   0.968750 0
  0.687500   0.937500 0
  0.718750   0.937500 0
  0.718750   0.968750 0
  0.718750   1.000000 0
  0.656250   0.781250 0
  0.656250   0.812500 0
  0.656250   0.843750 0
  0.656250   0.875000 0
  0.750000   0.968750 0
  0.750000   1.000000 0
  0.750000   0.656250 0
  0.750000   0.625000 0
  0.687500   0.656250 0
  0.687500   0.687500 0
  0.687500   0.625000 0
  0.718750   0.656250 0
  0.718750   0.687500 0
  0.718750   0.718750 0
  0.656250   0.531250 0
  0.656250   0.562500 0
  0.656250   0.656250 0
  0.656250   0.687500 0
  0.656250   0.750000 0
  0.656250   0.718750 0
  0.656250   0.625000 0
  0.656250   0.593750 0
  0.750000   0.687500 0
  0.750000   0.718750 0
  0.750000   0.750000 0
  0.687500   0.531250 0
  0.687500   0.562500 0
  0.687500   0.593750 0
  0.718750   0.625000 0
  0.750000   0.531250 0
  0.718750   0.531250 0
  0.750000   0.562500 0
  0.718750   0.562500 0
  0.718750   0.593750 0
  0.750000   0.593750 0
  0.562500   1.000000 0
  0.562500   0.968750 0
  0.562500   0.937500 0
  0.562500   0.906250 0
  0.562500   0.812500 0
  0.562500   0.843750 0
  0.562500   0.875000 0
  0.625000   0.937500 0
  0.625000   0.906250 0
  0.562500   0.781250 0
  0.625000   0.875000 0
  0.531250   1.000000 0
  0.531250   0.968750 0
  0.531250   0.937500 0
  0.531250   0.812500 0
  0.531250   0.875000 0
  0.531250   0.843750 0
  0.531250   0.906250 0
  0.593750   0.906250 0
  0.593750   0.843750 0
  0.593750   0.875000 0
  0.593750   0.812500 0
  0.625000   0.843750 0
  0.625000   0.812500 0
  0.593750   0.937500 0
  0.625000   1.000000 0
  0.593750   1.000000 0
  0.593750   0.968750 0
  0.625000   0.968750 0
  0.625000   0.781250 0
  0.593750   0.781250 0
  0.562500   0.531250 0
  0.562500   0.750000 0
  0.562500   0.718750 0
  0.562500   0.687500 0
  0.562500   0.656250 0
  0.562500   0.562500 0
  0.562500   0.593750 0
  0.562500   0.625000 0
  0.625000   0.687500 0
  0.625000   0.656250 0
  0.625000   0.593750 0
  0.625000   0.562500 0
  0.625000   0.625000 0
  0.531250   0.531250 0
  0.531250   0.750000 0
  0.531250   0.718750 0
  0.531250   0.687500 0
  0.531250   0.562500 0
  0.531250   0.625000 0
  0.531250   0.593750 0
  0.531250   0.656250 0
  0.593750   0.656250 0
  0.593750   0.593750 0
  0.593750   0.562500 0
  0.593750   0.625000 0
  0.593750   0.687500 0
  0.625000   0.750000 0
  0.593750   0.750000 0
  0.593750   0.718750 0
  0.625000   0.718750 0
  0.625000   0.531250 0
  0.593750   0.531250 0
  0.968750   0.406250 0
  0.968750   0.437500 0
  0.968750   0.468750 0
  0.968750   0.500000 0
  1.000000   0.406250 0
  1.000000   0.375000 0
  1.000000   0.437500 0
  1.000000   0.468750 0
  1.000000   0.500000 0
  0.906250   0.500000 0
  0.906250   0.406250 0
  0.906250   0.437500 0
  0.906250   0.281250 0
  0.906250   0.312500 0
  0.906250   0.343750 0
  0.906250   0.375000 0
  0.937500   0.406250 0
  0.937500   0.500000 0
  0.937500   0.468750 0
  0.937500   0.437500 0
  0.937500   0.281250 0
  0.937500   0.312500 0
  0.937500   0.343750 0
  0.937500   0.375000 0
  0.968750   0.375000 0
  1.000000   0.281250 0
  0.968750   0.281250 0
  1.000000   0.312500 0
  0.968750   0.312500 0
  0.968750   0.343750 0
  1.000000   0.343750 0
  0.968750   0.125000 0
  0.968750   0.156250 0
  0.968750   0.187500 0
  1.000000   0.000000 0
  1.000000   0.156250 0
  1.000000   0.125000 0
  1.000000   0.187500 0
  1.000000   0.218750 0
  0.531250   0.781250 0
  1.000000   0.250000 0
  0.906250   0.250000 0
  0.906250   0.218750 0
  0.937500   0.250000 0
  0.937500   0.218750 0
  0.968750   0.250000 0
  0.906250   0.031250 0
  0.906250   0.000000 0
  0.906250   0.062500 0
  0.906250   0.093750 0
  0.906250   0.125000 0
  0.937500   0.156250 0
  0.937500   0.031250 0
  0.937500   0.000000 0
  0.937500   0.062500 0
  0.937500   0.093750 0
  0.937500   0.125000 0
  1.000000   0.031250 0
  0.968750   0.031250 0
  0.968750   0.000000 0
  1.000000   0.062500 0
  0.968750   0.062500 0
  0.968750   0.093750 0
  1.000000   0.093750 0
  0.781250   0.312500 0
  0.781250   0.343750 0
  0.812500   0.500000 0
  0.812500   0.468750 0
  0.812500   0.437500 0
  0.812500   0.281250 0
  0.812500   0.312500 0
  0.812500   0.343750 0
  0.812500   0.375000 0
  0.875000   0.281250 0
  0.875000   0.406250 0
  0.875000   0.343750 0
  0.875000   0.312500 0
  0.875000   0.375000 0
  0.843750   0.281250 0
  0.843750   0.312500 0
  0.843750   0.375000 0
  0.843750   0.343750 0
  0.781250   0.500000 0
  0.781250   0.468750 0
  0.781250   0.437500 0
  0.781250   0.406250 0
  0.875000   0.500000 0
  0.843750   0.500000 0
  0.843750   0.468750 0
  0.875000   0.468750 0
  0.781250   0.281250 0
  0.843750   0.218750 0
  0.843750   0.250000 0
  0.843750   0.187500 0
  0.843750   0.156250 0
  0.875000   0.218750 0
  0.875000   0.250000 0
  0.875000   0.187500 0
  0.812500   0.062500 0
  0.812500   0.250000 0
  0.812500   0.218750 0
  0.812500   0.187500 0
  0.812500   0.156250 0
  0.812500   0.125000 0
  0.843750   0.093750 0
  0.843750   0.062500 0
  0.875000   0.125000 0
  0.875000   0.093750 0
  0.875000   0.062500 0
  0.781250   0.250000 0
  0.781250   0.218750 0
  0.781250   0.187500 0
  0.093750   0.937500 0
  0.125000   1.000000 0
  0.937500   0.718750 0
  0.250000   0.000000 0
  0.093750   0.968750 0
  0.125000   0.968750 0
  0.000000   0.718750 0
  0.000000   0.750000 0
  0.125000   0.531250 0
  0.125000   0.562500 0
  0.093750   0.531250 0
  0.031250   0.750000 0
  0.125000   0.468750 0
  0.156250   0.468750 0
  0.500000   0.375000 0
  0.156250   0.500000 0
  0.406250   0.406250 0
  0.406250   0.437500 0
  0.406250   0.500000 0
  0.406250   0.468750 0
  0.406250   0.375000 0
  0.750000   0.312500 0
  0.437500   0.406250 0
  0.437500   0.500000 0
  0.437500   0.468750 0
  0.437500   0.437500 0
  0.468750   0.437500 0
  0.468750   0.468750 0
  0.406250   0.281250 0
  0.406250   0.312500 0
  0.062500   0.375000 0
  0.406250   0.343750 0
  0.062500   0.406250 0
  0.500000   0.468750 0
  0.500000   0.500000 0
  0.437500   0.281250 0
  0.437500   0.312500 0
  0.437500   0.343750 0
  0.093750   0.406250 0
  0.437500   0.375000 0
  0.093750   0.437500 0
  0.468750   0.375000 0
  0.125000   0.437500 0
  0.500000   0.281250 0
  0.468750   0.281250 0
  0.500000   0.312500 0
  0.468750   0.312500 0
  0.468750   0.343750 0
  0.500000   0.343750 0
  0.843750   0.906250 0
  0.156250   0.187500 0
  0.468750   0.187500 0
  0.468750   0.218750 0
  0.468750   0.250000 0
  0.406250   0.031250 0
  0.750000   0.812500 0
  0.062500   0.093750 0
  0.406250   0.000000 0
  0.750000   0.781250 0
  0.062500   0.062500 0
  0.500000   0.187500 0
  0.500000   0.218750 0
  0.500000   0.250000 0
  0.437500   0.031250 0
  0.781250   0.812500 0
  0.093750   0.093750 0
  0.437500   0.000000 0
  0.437500   0.062500 0
  0.781250   0.843750 0
  0.093750   0.125000 0
  0.406250   0.187500 0
  0.406250   0.250000 0
  0.406250   0.218750 0
  0.437500   0.250000 0
  0.437500   0.218750 0
  0.437500   0.187500 0
  0.500000   0.000000 0
  0.500000   0.031250 0
  0.468750   0.031250 0
  0.468750   0.000000 0
  0.500000   0.062500 0
  0.468750   0.062500 0
  0.812500   0.843750 0
  0.125000   0.125000 0
  0.812500   0.875000 0
  0.125000   0.156250 0
  0.500000   0.093750 0
  0.843750   0.875000 0
  0.156250   0.156250 0
  1.000000   1.000000 0
  0.312500   0.281250 0
  0.656250   0.218750 0
  0.437500   0.156250 0
  0.312500   0.500000 0
  0.437500   0.125000 0
  0.312500   0.468750 0
  0.437500   0.093750 0
  0.781250   0.031250 0
  0.312500   0.437500 0
  0.312500   0.406250 0
  0.312500   0.312500 0
  0.312500   0.343750 0
  0.312500   0.375000 0
  0.375000   0.437500 0
  0.375000   0.406250 0
  0.375000   0.343750 0
  0.718750   0.281250 0
  0.375000   0.375000 0
  0.968750   1.000000 0
  0.281250   0.281250 0
  0.406250   0.156250 0
  0.281250   0.500000 0
  0.406250   0.125000 0
  0.281250   0.468750 0
[...]
CELL_DATA 1024
VECTORS vector_value float
0.0383938 -0.850295 0
0.042131 -0.822759 0
0.0610462 -0.931913 0
0.0701798 -0.887685 0
0.0445651 -0.792306 0
0.0246925 -0.766991 0
0.0170964 -0.751271 0
0.0125956 -0.847196 0
0.0138989 -0.820702 0
0.022996 -0.882788 0
0.020503 -0.926287 0
0.00774864 -0.770609 0
0.0142228 -0.79258 0
0.0052859 -0.757574 0
0.0018996 -0.750389 0
0.0517774 -0.759309 0
0.0808841 -0.797398 0
0.129284 -0.901369 0
0.0951592 -0.950358 0
0.0650379 -0.853011 0
0.0674501 -0.828583 0
0.0677254 -0.420676 0
0.0398157 -0.418532 0
0.013152 -0.41334 0
0.0296755 -0.735365 0
0.00990714 -0.727172 0
0.0973006 -0.414952 0
0.094288 -0.395181 0
0.0625375 -0.395271 0
0.210636 -0.457425 0
0.135125 -0.529754 0
0.0057842 -0.742762 0
0.0242656 -1.02242 0
0.0256819 -0.972472 0
0.252349 -1.47912 0
0.167098 -1.55246 0
0.178622 -1.23521 0
0.317351 -1.35051 0
0.0722482 -1.02409 0
0.0755719 -0.976161 0
0.285083 -1.22594 0
0.239833 -1.25807 0
0.52468 -1.11449 0
0.0705701 -1.07241 0
0.112673 -0.977323 0
0.129319 -1.02357 0
0.199123 -1.14644 0
0.116923 -1.07867 0
0.160968 -0.683587 0
0.190388 -0.62047 0
0.274473 -0.926612 0
0.282054 -0.836602 0
0.197575 -0.740788 0
0.113277 -1.50773 0
0.113726 -1.13639 0
0.14725 -1.42215 0
0.100575 -1.21107 0
0.181426 -1.30974 0
0.0229809 -1.06967 0
0.0491058 -1.39943 0
0.0371764 -1.12982 0
0.0326386 -1.19964 0
0.0590256 -1.2913 0
0.0383688 -1.48691 0
0.0911108 -0.298727 0
0.119417 -0.309605 0
0.0192197 -0.287092 0
0.0574316 -0.291209 0
0.135487 -0.323814 0
0.258772 -0.349275 0
0.107264 -0.266385 0
0.136825 -0.289069 0
0.0640156 -0.251166 0
0.0213821 -0.246537 0
0.299013 -0.342962 0
0.153443 -0.310225 0
0.303827 -0.390986 0
0.257062 -0.388257 0
0.239184 -0.429866 0
0.0772167 -0.402127 0
0.104743 -0.424785 0
0.0463 -0.388296 0
0.0153174 -0.384838 0
0.165828 -0.556073 0
0.0788049 -0.468176 0
0.232616 -0.587349 0
0.171552 -0.573427 0
0.301934 -0.458892 0
0.0515299 -0.327218 0
0.0172748 -0.323488 0
0.0876561 -0.329055 0
0.114478 -0.326572 0
0.119339 -0.33345 0
0.221961 -0.375149 0
0.200481 -0.407344 0
0.231325 -0.351584 0
0.613412 -0.796183 0
0.536067 -0.90956 0
0.59543 -0.513743 0
0.601624 -0.66826 0
0.680878 -0.989173 0
0.503452 -0.981902 0
0.387311 -0.999998 0
0.622649 -0.687101 0
0.594763 -0.641656 0
0.723212 -0.684199 0
0.735111 -0.577446 0
0.477939 -0.456232 0
0.607745 -0.547606 0
0.396931 -0.422242 0
0.402934 -0.368696 0
0.300577 -1.49723 0
0.345752 -1.58651 0
0.500772 -0.831423 0
0.6664 -0.806994 0
0.460233 -0.648704 0
0.445599 -0.512 0
0.559435 -0.716148 0
0.428377 -0.764438 0
0.349064 -0.854254 0
0.420868 -0.888569 0
0.573533 -1.54433 0
0.491354 -1.46648 0
0.399458 -1.08159 0
0.358024 -1.26363 0
0.284526 -0.813353 0
0.307275 -0.636025 0
0.441518 -1.02458 0
0.380468 -0.61982 0
0.0986071 -0.572033 0
0.0322511 -0.569638 0
0.514922 -0.646622 0
0.574494 -0.654768 0
0.442713 -0.626442 0
0.310595 -0.607607 0
0.218858 -0.590163 0
0.17281 -0.577461 0
0.0299105 -0.632351 0
0.0916008 -0.639303 0
0.483934 -0.702737 0
0.560974 -0.7391 0
0.285229 -0.704976 0
0.452503 -0.701719 0
0.197306 -0.675501 0
0.159925 -0.653766 0
0.0733392 -0.359926 0
0.0241886 -0.352426 0
0.181037 -0.411796 0
0.155146 -0.387038 0
0.125949 -0.372717 0
0.358014 -0.465654 0
0.370107 -0.542912 0
0.0826907 -0.305589 0
0.027103 -0.300823 0
0.173576 -0.338121 0
0.141881 -0.318081 0
0.233424 -0.38418 0
0.433525 -0.45822 0
0.436874 -0.52324 0
0.48114 -0.613771 0
0.811017 -0.68504 0
0.747882 -0.576081 0
0.719109 -0.630439 0
0.250291 -0.236711 0
0.186803 -0.19464 0
0.259505 -0.290517 0
0.27104 -0.350728 0
0.392299 -0.423688 0
0.400151 -0.504932 0
0.813042 -0.582331 0
0.298576 -0.229297 0
0.229499 -0.180387 0
0.343254 -0.334695 0
0.308962 -0.273234 0
0.471658 -0.413308 0
0.4886 -0.499872 0
0.768671 -0.692964 0
0.82234 -0.667029 0
0.499702 -0.611828 0
0.548619 -0.671964 0
0.59122 -0.704092 0
0.431959 -0.54918 0
0.346141 -0.449995 0
0.354957 -0.495215 0
0.814963 -0.756698 0
0.856894 -0.701788 0
0.51467 -0.732794 0
0.562596 -0.763239 0
0.426185 -0.685464 0
0.365161 -0.607795 0
0.327053 -0.567057 0
0.289379 -0.527611 0
0.146877 -1.06404 0
0.0303869 -1.08086 0
0.0901418 -1.07807 0
0.137324 -1.29388 0
0.189226 -1.29227 0
0.0869505 -1.2926 0
0.0295143 -1.29388 0
0.209642 -1.03569 0
0.301634 -0.982274 0
0.317133 -0.910683 0
0.425189 -0.835252 0
0.525518 -0.751192 0
0.0329341 -0.503899 0
0.256466 -1.22714 0
0.247109 -1.27074 0
0.329082 -1.1458 0
0.392565 -1.0008 0
0.096023 -1.13845 0
0.0319935 -1.14315 0
0.169373 -0.496213 0
0.225241 -0.486456 0
0.100052 -0.503633 0
0.466603 -0.563067 0
0.351903 -0.516703 0
0.617735 -0.61287 0
0.520421 -0.572276 0
0.160503 -1.13297 0
0.224364 -1.13298 0
0.491056 -0.935133 0
0.615703 -0.86314 0
0.361677 -1.11163 0
0.415938 -1.02437 0
0.159339 -0.410196 0
0.150928 -0.32959 0
0.3526 -0.654924 0
0.359586 -0.524091 0
0.10913 -0.258608 0
0.0771524 -0.529495 0
0.0645568 -0.441544 0
0.193853 -0.663518 0
0.219753 -0.831266 0
0.0731835 -0.318528 0
0.0560694 -0.373094 0
0.121283 -0.212014 0
0.125876 -0.170341 0
0.104905 -0.135632 0
0.315022 -0.414499 0
0.650091 -0.526271 0
0.663741 -0.625072 0
0.08217 -0.268396 0
0.0754681 -0.229963 0
0.510695 -0.517489 0
0.51833 -0.703494 0
0.232385 -0.407228 0
0.235178 -0.330537 0
0.312708 -0.331022 0
0.208531 -0.21748 0
0.212965 -0.266318 0
0.206249 -0.17627 0
0.156467 -0.143962 0
0.167194 -0.175379 0
0.130755 -0.142921 0
0.160826 -0.265573 0
0.164007 -0.217748 0
0.237846 -1.73572 0
0.382471 -1.49801 0
-0.0391003 -1.63876 0
0.0362571 -1.84131 0
0.136458 -1.84437 0
0.0442828 -1.75865 0
0.0274791 -1.62296 0
0.0351028 -1.56038 0
-0.0437147 -1.80128 0
-0.096456 -1.76876 0
0.0118559 -1.70865 0
0.0231765 -1.67362 0
0.167431 -1.6003 0
0.145193 -1.67029 0
0.103513 -1.7276 0
0.0270573 -1.79673 0
0.0344698 -1.6898 0
0.077517 -1.70677 0
0.0803567 -1.63634 0
0.103542 -1.5776 0
-0.0292018 -1.58257 0
-0.130313 -1.59575 0
0.0360959 -1.70824 0
0.0634129 -1.6788 0
0.0359171 -1.73641 0
-0.0565914 -1.72662 0
-0.0238095 -1.75387 0
0.00533471 -1.7566 0
-0.0182334 -1.70666 0
-0.00834068 -1.73323 0
0.010064 -1.73057 0
0.000468187 -1.7411 0
-0.228246 -1.08235 0
-0.189699 -1.23105 0
-0.0616719 -1.20757 0
-0.0729495 -1.07295 0
-0.175714 -1.45557 0
-0.244326 -1.52685 0
-0.417383 -0.974082 0
-0.508212 -0.957823 0
-0.329755 -1.05469 0
-0.287482 -1.16994 0
-0.303522 -1.3705 0
-0.168357 -1.45852 0
-0.151265 -1.71073 0
-0.130871 -1.64411 0
-0.307501 -1.29124 0
-0.170641 -1.47875 0
-0.251433 -1.39884 0
-0.171881 -1.52667 0
-0.155344 -1.5833 0
-0.112529 -1.49968 0
-0.0927044 -1.56504 0
-0.111164 -1.42878 0
-0.147456 -1.34523 0
-0.0837001 -1.67722 0
-0.0761711 -1.62158 0
-0.430491 -1.1199 0
-0.0377255 -1.40659 0
-0.0386685 -1.48299 0
-0.0312671 -1.55292 0
-0.0498132 -1.31906 0
-0.0272113 -1.66121 0
-0.0249041 -1.6091 0
0.100685 -0.986788 0
0.0257637 -0.971889 0
0.316843 -1.01021 0
0.172986 -0.994442 0
-0.0249253 -0.952956 0
-0.0740694 -0.939223 0
-0.0919147 -0.935004 0
-0.186102 -0.936582 0
0.0975062 -0.311124 0
0.0268481 -0.323929 0
0.164666 -0.314969 0
0.298362 -0.326 0
-0.0657958 -0.371041 0
-0.0223812 -0.34649 0
-0.0754934 -0.399955 0
-0.10707 -0.493831 0
-0.154778 -1.24716 0
0.172974 -0.922366 0
0.325344 -0.915087 0
0.11565 -0.915067 0
0.0350446 -0.905719 0
-0.0800614 -0.857128 0
-0.174793 -0.832387 0
-0.0203084 -0.910754 0
-0.0465151 -0.892316 0
0.0711813 -1.32717 0
0.14207 -1.27397 0
0.229314 -1.33175 0
0.445217 -1.51524 0
-0.0334492 -1.28905 0
-0.0523947 -1.19399 0
-0.0744922 -1.27249 0
-0.314859 -0.882736 0
-0.249305 -0.899895 0
-0.219352 -0.722216 0
-0.300103 -0.851362 0
-0.273123 -0.882967 0
-0.315305 -0.89682 0
-0.349775 -0.903097 0
-0.370343 -0.907058 0
-0.403211 -0.925007 0
-0.425849 -0.971097 0
-0.259093 -0.933117 0
-0.305794 -0.942804 0
-0.350904 -0.916895 0
-0.372085 -0.923728 0
-0.367884 -0.953712 0
-0.382872 -0.985926 0
-0.336652 -0.820056 0
-0.253463 -0.813528 0
-0.293868 -0.845746 0
-0.325968 -0.863301 0
-0.380277 -0.859822 0
-0.544901 -0.909851 0
-0.361926 -0.879839 0
-0.37668 -0.894367 0
-0.226369 -1.05402 0
-0.372278 -1.01528 0
-0.272297 -1.21156 0
-0.271685 -1.26423 0
-0.550543 -1.08451 0
-0.407988 -1.10118 0
-0.375719 -1.05884 0
-0.367092 -1.04852 0
0.133673 -0.437342 0
0.230528 -0.471545 0
0.00669801 -0.200363 0
-0.0120976 -0.226133 0
0.0165133 -0.174783 0
0.0316524 -0.157348 0
0.271146 -0.408681 0
-0.0243529 -0.188687 0
-0.0298082 -0.211678 0
0.0174652 -0.136443 0
-0.00849764 -0.158206 0
0.0560979 -0.123561 0
0.197612 -0.143657 0
0.114794 -0.126065 0
0.0857354 -0.118689 0
0.101725 -0.150764 0
0.176396 -0.167459 0
0.0670027 -0.145137 0
0.0827518 -0.142088 0
0.154055 -0.381885 0
0.0954074 -0.37302 0
0.0456008 -0.376869 0
-0.00723261 -0.388209 0
-0.0408806 -0.403723 0
-0.0391397 -0.426898 0
-0.0489333 -0.426283 0
0.0503314 -0.417047 0
0.0905781 -0.420996 0
-0.0377309 -0.434397 0
0.00486366 -0.422534 0
-0.0275616 -0.432436 0
-0.0445744 -0.43955 0
-0.112822 -0.498164 0
-0.0710136 -0.461869 0
0.0439882 -0.726734 0
0.148838 -0.8918 0
-0.00167237 -0.600541 0
-0.1768 -0.605404 0
-0.162504 -0.547092 0
-0.176723 -0.442386 0
-0.0788316 -0.406963 0
-0.103306 -0.787244 0
-0.0205264 -0.938836 0
-0.127127 -0.640688 0
-0.222992 -0.517847 0
-0.046407 -0.228733 0
-0.0702749 -0.25959 0
-0.188793 -0.505009 0
-0.104237 -0.383566 0
-0.104451 -0.311262 0
-0.0325291 -0.269274 0
-0.0286088 -0.244588 0
-0.0391475 -0.46112 0
-0.0348913 -0.363572 0
-0.0488604 -0.310939 0
-0.170391 -0.9113 0
-0.217113 -0.799221 0
-0.287813 -0.655544 0
-0.233669 -0.725427 0
-0.313944 -0.945147 0
-0.295118 -0.835667 0
-0.253416 -0.59664 0
-0.352438 -0.687742 0
-0.308156 -0.756969 0
0.068364 -0.097285 0
0.0699809 -0.0903662 0
0.116111 -0.115834 0
0.0672849 -0.104753 0
0.0551989 -0.0892572 0
0.0708747 -0.104364 0
0.0601623 -0.140684 0
0.0686221 -0.138042 0
0.0513022 -0.1574 0
0.0871006 -0.191313 0
0.0967375 -0.179273 0
0.0705614 -0.153155 0
0.1224 -0.207683 0
0.034506 -0.10649 0
0.0355835 -0.127787 0
0.026648 -0.169648 0
0.0637315 -0.132407 0
0.0667189 -0.158765 0
0.0504637 -0.109599 0
0.0487514 -0.0978473 0
0.0761479 -0.104481 0
0.133414 -0.119566 0
0.0744095 -0.0970409 0
0.0737927 -0.0941025 0
0.131116 -0.2478 0
0.0420258 -0.0955581 0
0.0791655 -0.0924231 0
0.0728068 -0.0915915 0
0.0929908 -0.131226 0
0.0877335 -0.101324 0
0.155303 -0.119715 0
0.0921128 -0.159522 0
0.201933 -0.32228 0
0.178685 -0.428884 0
0.0880905 -0.190543 0
0.0830249 -0.233813 0
0.408046 -0.552679 0
0.403415 -0.696481 0
0.656881 -0.93201 0
0.413696 -0.812354 0
0.128774 -0.558114 0
0.0965667 -0.431375 0
-0.015412 -0.299206 0
0.0217022 -0.336616 0
-0.00695511 -0.281849 0
0.0169022 -0.23545 0
0.300308 -0.420358 0
0.266554 -0.499997 0
0.135417 -0.358058 0
0.134667 -0.302358 0
0.528754 -0.751914 0
0.561198 -0.617224 0
0.511162 -0.858847 0
0.772548 -0.952323 0
0.175666 -0.694045 0
0.372609 -0.884428 0
0.26455 -0.71308 0
0.245319 -0.555291 0
0.0295478 -0.21443 0
0.0625481 -0.17868 0
0.066193 -0.31518 0
0.0926636 -0.430337 0
0.306254 -0.843514 0
0.538536 -0.949645 0
0.0994901 -0.979341 0
0.117051 -1.10257 0
-0.0999603 -1.2389 0
-0.0368934 -1.87309 0
-0.0115354 -1.92184 0
-0.0229124 -1.3247 0
-0.00110531 -1.39397 0
-0.0700428 -1.52873 0
-0.0960606 -1.72994 0
0.0101282 -1.17126 0
0.0100467 -1.92084 0
0.0355549 -1.87556 0
0.104393 -1.40186 0
0.0621294 -1.28059 0
0.114405 -1.55704 0
0.106928 -1.74327 0
0.221696 -1.10018 0
0.236511 -0.981739 0
0.199535 -1.18316 0
-0.181691 -1.11227 0
0.193349 -1.22531 0
0.17553 -1.18662 0
0.184982 -1.22096 0
0.142868 -1.1809 0
0.0804756 -1.16786 0
0.0239427 -1.18139 0
-0.0409831 -1.04709 0
0.214407 -1.22919 0
0.184337 -1.24525 0
0.143227 -1.24262 0
0.0283996 -1.2354 0
0.0881705 -1.23678 0
-0.00561254 -0.521874 0
0.0434086 -0.260118 0
0.0445904 -0.228912 0
-0.191102 -0.934901 0
-0.128873 -1.00913 0
-0.185242 -0.579598 0
-0.145466 -0.496576 0
-0.183449 -0.65102 0
-0.20437 -0.716371 0
-0.180485 -0.777927 0
-0.198337 -0.847868 0
-0.0661755 -0.946821 0
-0.121132 -0.888387 0
-0.10202 -0.586939 0
-0.0731824 -0.514454 0
-0.135732 -0.733415 0
-0.117755 -0.664433 0
-0.130081 -0.790901 0
-0.131294 -0.838406 0
-0.0173498 -0.60163 0
-0.0858162 -0.805825 0
-0.0993907 -0.834489 0
-0.0752478 -0.758562 0
-0.0386276 -0.687932 0
0.00443692 -0.868522 0
-0.101166 -0.836378 0
-0.00864393 -0.356532 0
-0.0221685 -0.439521 0
-0.0292241 -0.544672 0
0.0243646 -0.297566 0
0.092255 -0.867719 0
-0.00161838 -0.712497 0
-0.0600354 -1.68215 0
-0.336255 -2.20521 0
-0.440397 -2.08872 0
-0.0580907 -2.27273 0
-0.180943 -2.26032 0
-0.569902 -1.9168 0
-0.417951 -1.72358 0
-0.417668 -1.59286 0
-0.455269 -1.60353 0
-0.346914 -1.72346 0
-0.492366 -1.77731 0
-0.18775 -1.68581 0
-0.507268 -1.90689 0
-0.617043 -1.85013 0
-0.486982 -1.87898 0
-0.467393 -1.78686 0
-0.1529 -2.1386 0
-0.0486934 -2.16363 0
-0.253416 -2.08283 0
-0.306841 -1.98292 0
-0.328458 -1.55606 0
-0.426808 -1.42771 0
-0.373496 -1.82489 0
-0.264375 -1.66812 0
-0.208925 -2.00332 0
-0.204903 -1.9568 0
-0.104398 -2.04054 0
-0.0324748 -2.08023 0
-0.300868 -1.35933 0
-0.216729 -1.46865 0
-0.159204 -1.7986 0
-0.127994 -1.60469 0
-0.274636 -1.67403 0
-0.212889 -1.64724 0
-0.290963 -1.62211 0
-0.290057 -1.68883 0
-0.256023 -1.57074 0
-0.200302 -1.56482 0
-0.242832 -1.54019 0
-0.3589 -1.55868 0
-0.332939 -1.56514 0
-0.353595 -1.62121 0
-0.428242 -1.716 0
-0.241226 -1.54125 0
-0.323965 -1.55106 0
-0.346813 -1.53646 0
-0.282421 -1.57514 0
-0.363679 -1.61609 0
-0.247512 -1.30163 0
-0.1819 -1.2703 0
-0.194142 -1.31558 0
-0.236613 -1.32783 0
-0.357288 -1.15206 0
-0.380513 -1.01324 0
-0.331095 -1.27531 0
-0.314633 -1.22274 0
-0.241076 -1.043 0
-0.232855 -1.3177 0
-0.21303 -1.32058 0
-0.21604 -1.29012 0
-0.180104 -1.29206 0
-0.267772 -1.28619 0
-0.265279 -1.13563 0
-0.255395 -1.21619 0
-0.170401 -1.81807 0
-0.0547592 -1.79911 0
-0.500425 -1.33132 0
-0.41791 -1.50125 0
-0.421857 -0.951953 0
-0.617244 -1.19062 0
-0.134682 -1.92712 0
-0.04363 -1.89923 0
-0.463673 -1.30111 0
-0.379058 -1.20678 0
-0.384641 -1.17245 0
-0.244336 -1.9741 0
-0.033573 -0.646354 0
-0.103716 -0.659489 0
-0.315919 -0.780298 0
-0.187109 -0.700703 0
-0.0798883 -0.72477 0
-0.0263237 -0.706829 0
-0.213874 -0.97053 0
-0.218463 -0.836746 0
-0.131358 -0.763134 0
-0.604535 -1.9459 0
-0.393933 -2.02974 0
-0.546658 -1.88297 0
-0.551878 -2.06612 0
-0.627223 -1.96745 0
-0.291106 -1.85358 0
-0.542614 -1.88648 0
-0.448563 -1.89933 0
-0.560828 -1.92653 0
-0.513163 -1.92009 0
-0.587693 -1.80266 0
-0.208248 -1.05938 0
-0.231968 -1.02192 0
-0.309531 -1.71429 0
-0.271531 -1.67615 0
-0.169483 -1.50316 0
-0.246606 -1.30034 0
-0.354367 -1.60448 0
-0.379668 -1.69079 0
-0.256057 -1.96123 0
-0.357044 -1.90142 0
-0.253381 -1.50985 0
-0.305994 -1.54248 0
-0.308819 -1.80181 0
-0.334335 -1.96729 0
-0.351865 -1.94269 0
-0.275173 -1.95053 0
-0.261974 -1.94285 0
-0.34699 -1.95281 0
-0.365753 -1.97772 0
-0.448729 -1.97187 0
-0.126615 -1.79867 0
-0.221485 -2.12348 0
-0.266662 -2.00198 0
-0.328851 -2.00548 0
-0.336795 -1.99176 0
-0.326291 -2.03917 0
-0.257485 -2.00868 0
-0.299724 -1.99341 0
-0.339823 -1.519 0
-0.269883 -1.52356 0
-0.339657 -1.50965 0
-0.307514 -1.51865 0
-0.00493819 -0.832817 0
-0.017698 -0.887249 0
-0.00415613 -0.792864 0
-0.0099286 -0.802937 0
-0.0420738 -0.945329 0
-0.0555038 -1.00316 0
-0.108858 -1.08056 0
0.00871535 -0.408861 0
0.0071829 -0.392962 0
-0.00120912 -0.416367 0
-0.000796673 -0.414361 0
-0.0118423 -0.41368 0
-0.008029 -0.393808 0
-0.0316395 -0.457161 0
-0.110977 -0.599778 0
-0.361479 -1.09778 0
-0.276459 -1.39689 0
-0.12039 -0.987023 0
-0.0981202 -0.923925 0
-0.029026 -0.794223 0
-0.0102515 -0.779103 0
-0.0459074 -0.82441 0
-0.0752039 -0.868452 0
-0.212558 -1.07821 0
-0.117938 -1.08654 0
-0.210417 -0.950016 0
-0.128686 -0.892522 0
-0.0856926 -0.802116 0
-0.134989 -0.857644 0
-0.0533091 -0.768235 0
-0.0180248 -0.751299 0
-0.194844 -1.09903 0
-0.0856476 -1.02595 0
-0.124358 -1.10009 0
-0.151077 -1.01478 0
-0.0930675 -0.977424 0
-0.0983126 -1.18 0
-0.127836 -1.25565 0
-0.10058 -1.32957 0
-0.0767042 -1.38818 0
-0.0284514 -1.02071 0
-0.039481 -1.08864 0
-0.0366436 -0.955614 0
-0.104108 -0.814863 0
-0.0433469 -1.23527 0
-0.0319015 -1.16002 0
-0.0339023 -1.31252 0
-0.0254307 -1.37185 0
-0.107749 -1.42015 0
-0.119513 -0.966651 0
-0.0555608 -0.998363 0
-0.163538 -1.02246 0
-0.230567 -1.13242 0
-0.143609 -1.35993 0
-0.140319 -1.40796 0
-0.166527 -1.22694 0
-0.213496 -1.30516 0
-0.167473 -1.81939 0
-0.19119 -1.67399 0
-0.108908 -1.88187 0
-0.164149 -1.75217 0
-0.0698709 -1.57448 0
-0.18863 -1.5622 0
-0.311952 -1.60453 0
-0.11236 -0.42525 0
-0.0529633 -0.373448 0
0.198584 -0.344375 0
0.275616 -0.395587 0
0.197143 -0.311702 0
0.108456 -0.302491 0
0.046064 -0.322344 0
0.00196394 -0.344794 0
-0.0549331 -0.456069 0
-0.0173954 -0.414877 0
0.171582 -0.401864 0
0.197687 -0.455582 0
0.111259 -0.372585 0
0.173661 -0.384052 0
0.0655073 -0.374978 0
0.0199596 -0.389967 0
0.0267535 -0.14119 0
0.0346714 -0.184255 0
0.0877293 -0.128048 0
0.0718736 -0.122741 0
0.0519075 -0.125103 0
0.124881 -0.147241 0
0.206727 -0.234757 0
0.148544 -0.173119 0
0.00556225 -0.444959 0
-0.0119502 -0.469707 0
0.0714765 -0.416927 0
0.0394614 -0.427409 0
0.100558 -0.424052 0
0.152069 -0.444877 0
0.161298 -0.458941 0
0.204932 -0.408262 0
0.242886 -0.601015 0
0.378601 -0.776253 0
0.696873 -1.0338 0
1.00271 -1.03759 0
0.751276 -1.00572 0
0.831904 -1.01029 0
0.177954 -0.320517 0
0.735176 -0.9575 0
0.646393 -0.93038 0
1.01004 -0.969743 0
0.882491 -0.957953 0
0.753253 -0.909957 0
0.638586 -0.964739 0
0.630362 -0.881621 0
0.581197 -0.647215 0
0.388773 -0.47397 0
0.730155 -0.844236 0
0.182518 -0.355396 0
0.18876 -0.309901 0
0.713176 -0.667878 0
0.356493 -0.543188 0
0.396653 -0.436543 0
0.639909 -0.796321 0
0.86292 -0.957305 0
0.591094 -0.880477 0
0.253557 -0.335254 0
0.494411 -0.619911 0
0.528399 -0.456892 0
0.8667 -0.786663 0
0.715934 -0.887768 0
0.631257 -0.919801 0
0.9427 -0.962916 0
-0.0470228 -1.91805 0
0.132086 -1.90493 0
-0.321179 -1.80645 0
-0.251572 -1.88954 0
-0.0386626 -1.74273 0
0.114477 -1.7466 0
-0.198846 -1.71016 0
-0.24602 -1.66536 0
0.242795 -1.72582 0
0.289055 -1.86185 0
0.413223 -1.81823 0
0.369067 -1.77886 0
0.537352 -1.56572 0
-0.109567 -0.843118 0
-0.197759 -0.933319 0
0.371229 -1.68117 0
0.315142 -1.62462 0
0.384048 -1.63054 0
-0.213002 -0.738406 0
-0.313682 -0.867562 0
-0.0420307 -0.666329 0
-0.0217366 -0.791467 0
0.0532011 -0.797354 0
0.268061 -0.993159 0
0.162009 -0.877898 0
0.278307 -1.11113 0
0.391215 -1.25524 0
0.109799 -0.696746 0
0.367578 -0.959922 0
0.59902 -1.11289 0
0.270191 -0.780981 0
0.375421 -0.881261 0
0.6176 -1.17436 0
0.824165 -1.28061 0
0.591837 -1.2316 0
0.881714 -1.12597 0
0.678024 -1.37918 0
0.58075 -1.6879 0
0.83936 -1.56 0
0.878494 -1.77636 0
0.523137 -1.74265 0
0.522224 -1.19752 0
0.557891 -1.35649 0
0.603035 -1.33721 0
0.584242 -1.31283 0
0.457799 -1.16474 0
0.695553 -1.55688 0
0.762789 -1.43663 0
0.771128 -1.59857 0
0.533489 -1.43717 0
0.717514 -1.25961 0
0.770577 -1.35013 0
0.703314 -1.20421 0
0.880487 -1.08464 0
0.52123 -1.07807 0
0.293853 -0.999203 0
0.836651 -1.3478 0
0.685951 -1.29122 0
0.601309 -1.36077 0
0.735494 -1.35949 0
0.689745 -1.33786 0
0.617986 -1.2237 0
0.709196 -1.08665 0
0.670555 -1.30059 0
0.363966 -1.58493 0
0.207395 -1.71983 0
0.264202 -1.49956 0
0.441482 -1.50014 0
-0.0979749 -1.90347 0
-0.237706 -2.14307 0
0.0093698 -1.28168 0
0.177265 -1.22462 0
-0.0383475 -1.36122 0
-0.0303794 -1.42827 0
-0.169483 -1.60031 0
-0.158353 -1.7809 0
-0.127447 -1.90713 0
-0.0682516 -2.00675 0
0.11734 -1.59782 0
0.0491296 -1.86187 0
0.0732263 -1.73784 0
-0.00014947 -1.93867 0
-0.0722604 -2.01351 0
0.0861669 -2.02661 0
-0.0293384 -2.08101 0
0.153401 -1.91283 0
0.204581 -1.80123 0
-0.186414 -2.06168 0
-0.123087 -2.07586 0
0.222736 -1.50144 0
0.222085 -1.61769 0
0.122836 -1.60925 0
-0.0273795 -1.59349 0
0.297395 -1.56779 0
-0.207996 -1.53161 0
-0.15388 -1.56981 0
0.250094 -1.04456 0
0.289542 -1.11886 0
0.366578 -1.26539 0
0.531851 -0.618271 0
0.394793 -0.845028 0
0.371264 -0.555726 0
0.227772 -0.581406 0
0.431146 -0.661554 0
0.193288 -0.825586 0
0.365693 -1.41609 0
0.611996 -1.24105 0
0.455166 -0.683591 0
0.0840664 -0.844245 0
0.290945 -0.719744 0
0.377664 -0.675851 0
0.598979 -0.870601 0