# vtk DataFile Version 2.0
Unstructured Grid by M++
ASCII
DATASET UNSTRUCTURED_GRID
POINTS 1089 float
  0.968750   0.906250 0
  0.968750   0.937500 0
  1.000000   0.906250 0
  1.000000   0.937500 0
  1.000000   0.968750 0
  0.906250   0.906250 0
  0.906250   0.875000 0
  0.906250   0.812500 0
  0.906250   0.843750 0
  0.937500   0.906250 0
  0.937500   0.937500 0
  0.937500   0.843750 0
  0.937500   0.875000 0
  0.968750   0.875000 0
  0.968750   0.656250 0
  0.968750   0.687500 0
  1.000000   0.656250 0
  1.000000   0.625000 0
  1.000000   0.687500 0
  0.906250   0.656250 0
  0.906250   0.687500 0
  0.906250   0.625000 0
  0.906250   0.531250 0
  0.906250   0.562500 0
  0.906250   0.593750 0
  0.937500   0.656250 0
  0.937500   0.687500 0
  0.937500   0.531250 0
  0.937500   0.562500 0
  0.937500   0.593750 0
  0.937500   0.625000 0
  0.968750   0.625000 0
  0.968750   0.593750 0
  1.000000   0.593750 0
  0.968750   0.562500 0
  1.000000   0.562500 0
  1.000000   0.531250 0
  0.968750   0.531250 0
  0.781250   1.000000 0
  0.812500   0.781250 0
  0.812500   0.812500 0
  0.875000   0.843750 0
  0.875000   0.812500 0
  0.875000   0.875000 0
  0.781250   0.781250 0
  0.843750   0.843750 0
  0.843750   0.812500 0
  0.875000   0.781250 0
  0.843750   0.781250 0
  0.781250   0.750000 0
  0.781250   0.718750 0
  0.781250   0.687500 0
  0.812500   0.750000 0
  0.812500   0.718750 0
  0.812500   0.531250 0
  0.812500   0.687500 0
  0.812500   0.656250 0
  0.812500   0.562500 0
  0.812500   0.593750 0
  0.812500   0.625000 0
  0.875000   0.687500 0
  0.875000   0.656250 0
  0.875000   0.593750 0
  0.875000   0.562500 0
  0.875000   0.625000 0
  0.781250   0.531250 0
  0.781250   0.562500 0
  0.781250   0.625000 0
  0.781250   0.593750 0
  0.781250   0.656250 0
  0.843750   0.656250 0
  0.843750   0.593750 0
  0.843750   0.562500 0
  0.843750   0.625000 0
  0.843750   0.687500 0
  0.843750   0.750000 0
  0.875000   0.531250 0
  0.843750   0.531250 0
  0.656250   0.906250 0
  0.656250   0.937500 0
  0.656250   1.000000 0
  0.656250   0.968750 0
  0.687500   1.000000 0
  0.687500   0.968750 0
  0.687500   0.937500 0
  0.718750   0.937500 0
  0.718750   0.968750 0
  0.718750   1.000000 0
  0.656250   0.781250 0
  0.656250   0.812500 0
  0.656250   0.843750 0
  0.656250   0.875000 0
  0.750000   0.968750 0
  0.750000   1.000000 0
  0.750000   0.656250 0
  0.750000   0.625000 0
  0.687500   0.656250 0
  0.687500   0.687500 0
  0.687500   0.625000 0
  0.718750   0.656250 0
  0.718750   0.687500 0
  0.718750   0.718750 0
  0.656250   0.531250 0
  0.656250   0.562500 0
  0.656250   0.656250 0
  0.656250   0.687500 0
  0.656250   0.750000 0
  0.656250   0.718750 0
  0.656250   0.625000 0
  0.656250   0.593750 0
  0.750000   0.687500 0
  0.750000   0.718750 0
  0.750000   0.750000 0
  0.687500   0.531250 0
  0.687500   0.562500 0
  0.687500   0.593750 0
  0.718750   0.625000 0
  0.750000   0.531250 0
  0.718750   0.531250 0
  0.750000   0.562500 0
  0.718750   0.562500 0
  0.718750   0.593750 0
  0.750000   0.593750 0
  0.562500   1.000000 0
  0.562500   0.968750 0
  0.562500   0.937500 0
  0.562500   0.906250 0
  0.562500   0.812500 0
  0.562500   0.843750 0
  0.562500   0.875000 0
  0.625000   0.937500 0
  0.625000   0.906250 0
  0.562500   0.781250 0
  0.625000   0.875000 0
  0.531250   1.000000 0
  0.531250   0.968750 0
  0.531250   0.937500 0
  0.531250   0.812500 0
  0.531250   0.875000 0
  0.531250   0.843750 0
  0.531250   0.906250 0
  0.593750   0.906250 0
  0.593750   0.843750 0
  0.593750   0.875000 0
  0.593750   0.812500 0
  0.625000   0.843750 0
  0.625000   0.812500 0
  0.593750   0.937500 0
  0.625000   1.000000 0
  0.593750   1.000000 0
  0.593750   0.968750 0
  0.625000   0.968750 0
  0.625000   0.781250 0
  0.593750   0.781250 0
  0.562500   0.531250 0
  0.562500   0.750000 0
  0.562500   0.718750 0
  0.562500   0.687500 0
  0.562500   0.656250 0
  0.562500   0.562500 0
  0.562500   0.593750 0
  0.562500   0.625000 0
  0.625000   0.687500 0
  0.625000   0.656250 0
  0.625000   0.593750 0
  0.625000   0.562500 0
  0.625000   0.625000 0
  0.531250   0.531250 0
  0.531250   0.750000 0
  0.531250   0.718750 0
  0.531250   0.687500 0
  0.531250   0.562500 0
  0.531250   0.625000 0
  0.531250   0.593750 0
  0.531250   0.656250 0
  0.593750   0.656250 0
  0.593750   0.593750 0
  0.593750   0.562500 0
  0.593750   0.625000 0
  0.593750   0.687500 0
  0.625000   0.750000 0
  0.593750   0.750000 0
  0.593750   0.718750 0
  0.625000   0.718750 0
  0.625000   0.531250 0
  0.593750   0.531250 0
  0.968750   0.406250 0
  0.968750   0.437500 0
  0.968750   0.468750 0
  0.968750   0.500000 0
  1.000000   0.406250 0
  1.000000   0.375000 0
  1.000000   0.437500 0
  1.000000   0.468750 0
  1.000000   0.500000 0
  0.906250   0.500000 0
  0.906250   0.406250 0
  0.906250   0.437500 0
  0.906250   0.281250 0
  0.906250   0.312500 0
  0.906250   0.343750 0
  0.906250   0.375000 0
  0.937500   0.406250 0
  0.937500   0.500000 0
  0.937500   0.468750 0
  0.937500   0.437500 0
  0.937500   0.281250 0
  0.937500   0.312500 0
  0.937500   0.343750 0
  0.937500   0.375000 0
  0.968750   0.375000 0
  1.000000   0.281250 0
  0.968750   0.281250 0
  1.000000   0.312500 0
  0.968750   0.312500 0
  0.968750   0.343750 0
  1.000000   0.343750 0
  0.968750   0.125000 0
  0.968750   0.156250 0
  0.968750   0.187500 0
  1.000000   0.000000 0
  1.000000   0.156250 0
  1.000000   0.125000 0
  1.000000   0.187500 0
  1.000000   0.218750 0
  0.531250   0.781250 0
  1.000000   0.250000 0
  0.906250   0.250000 0
  0.906250   0.218750 0
  0.937500   0.250000 0
  0.937500   0.218750 0
  0.968750   0.250000 0
  0.906250   0.031250 0
  0.906250   0.000000 0
  0.906250   0.062500 0
  0.906250   0.093750 0
  0.906250   0.125000 0
  0.937500   0.156250 0
  0.937500   0.031250 0
  0.937500   0.000000 0
  0.937500   0.062500 0
  0.937500   0.093750 0
  0.937500   0.125000 0
  1.000000   0.031250 0
  0.968750   0.031250 0
  0.968750   0.000000 0
  1.000000   0.062500 0
  0.968750   0.062500 0
  0.968750   0.093750 0
  1.000000   0.093750 0
  0.781250   0.312500 0
  0.781250   0.343750 0
  0.812500   0.500000 0
  0.812500   0.468750 0
  0.812500   0.437500 0
  0.812500   0.281250 0
  0.812500   0.312500 0
  0.812500   0.343750 0
  0.812500   0.375000 0
  0.875000   0.281250 0
  0.875000   0.406250 0
  0.875000   0.343750 0
  0.875000   0.312500 0
  0.875000   0.375000 0
  0.843750   0.281250 0
  0.843750   0.312500 0
  0.843750   0.375000 0
  0.843750   0.343750 0
  0.781250   0.500000 0
  0.781250   0.468750 0
  0.781250   0.437500 0
  0.781250   0.406250 0
  0.875000   0.500000 0
  0.843750   0.500000 0
  0.843750   0.468750 0
  0.875000   0.468750 0
  0.781250   0.281250 0
  0.843750   0.218750 0
  0.843750   0.250000 0
  0.843750   0.187500 0
  0.843750   0.156250 0
  0.875000   0.218750 0
  0.875000   0.250000 0
  0.875000   0.187500 0
  0.812500   0.062500 0
  0.812500   0.250000 0
  0.812500   0.218750 0
  0.812500   0.187500 0
  0.812500   0.156250 0
  0.812500   0.125000 0
  0.843750   0.093750 0
  0.843750   0.062500 0
  0.875000   0.125000 0
  0.875000   0.093750 0
  0.875000   0.062500 0
  0.781250   0.250000 0
  0.781250   0.218750 0
  0.781250   0.187500 0
  0.093750   0.937500 0
  0.125000   1.000000 0
  0.937500   0.718750 0
  0.250000   0.000000 0
  0.093750   0.968750 0
  0.125000   0.968750 0
  0.000000   0.718750 0
  0.000000   0.750000 0
  0.125000   0.531250 0
  0.125000   0.562500 0
  0.093750   0.531250 0
  0.031250   0.750000 0
  0.125000   0.468750 0
  0.156250   0.468750 0
  0.500000   0.375000 0
  0.156250   0.500000 0
  0.406250   0.406250 0
  0.406250   0.437500 0
  0.406250   0.500000 0
  0.406250   0.468750 0
  0.406250   0.375000 0
  0.750000   0.312500 0
  0.437500   0.406250 0
  0.437500   0.500000 0
  0.437500   0.468750 0
  0.437500   0.437500 0
  0.468750   0.437500 0
  0.468750   0.468750 0
  0.406250   0.281250 0
  0.406250   0.312500 0
  0.062500   0.375000 0
  0.406250   0.343750 0
  0.062500   0.406250 0
  0.500000   0.468750 0
  0.500000   0.500000 0
  0.437500   0.281250 0
  0.437500   0.312500 0
  0.437500   0.343750 0
  0.093750   0.406250 0
  0.437500   0.375000 0
  0.093750   0.437500 0
  0.468750   0.375000 0
  0.125000   0.437500 0
  0.500000   0.281250 0
  0.468750   0.281250 0
  0.500000   0.312500 0
  0.468750   0.312500 0
  0.468750   0.343750 0
  0.500000   0.343750 0
  0.843750   0.906250 0
  0.156250   0.187500 0
  0.468750   0.187500 0
  0.468750   0.218750 0
  0.468750   0.250000 0
  0.406250   0.031250 0
  0.750000   0.812500 0
  0.062500   0.093750 0
  0.406250   0.000000 0
  0.750000   0.781250 0
  0.062500   0.062500 0
  0.500000   0.187500 0
  0.500000   0.218750 0
  0.500000   0.250000 0
  0.437500   0.031250 0
  0.781250   0.812500 0
  0.093750   0.093750 0
  0.437500   0.000000 0
  0.437500   0.062500 0
  0.781250   0.843750 0
  0.093750   0.125000 0
  0.406250   0.187500 0
  0.406250   0.250000 0
  0.406250   0.218750 0
  0.437500   0.250000 0
  0.437500   0.218750 0
  0.437500   0.187500 0
  0.500000   0.000000 0
  0.500000   0.031250 0
  0.468750   0.031250 0
  0.468750   0.000000 0
  0.500000   0.062500 0
  0.468750   0.062500 0
  0.812500   0.843750 0
  0.125000   0.125000 0
  0.812500   0.875000 0
  0.125000   0.156250 0
  0.500000   0.093750 0
  0.843750   0.875000 0
  0.156250   0.156250 0
  1.000000   1.000000 0
  0.312500   0.281250 0
  0.656250   0.218750 0
  0.437500   0.156250 0
  0.312500   0.500000 0
  0.437500   0.125000 0
  0.312500   0.468750 0
  0.437500   0.093750 0
  0.781250   0.031250 0
  0.312500   0.437500 0
  0.312500   0.406250 0
  0.312500   0.312500 0
  0.312500   0.343750 0
  0.312500   0.375000 0
  0.375000   0.437500 0
  0.375000   0.406250 0
  0.375000   0.343750 0
  0.718750   0.281250 0
  0.375000   0.375000 0
  0.968750   1.000000 0
  0.281250   0.281250 0
  0.406250   0.156250 0
  0.281250   0.500000 0
  0.406250   0.125000 0
  0.281250   0.468750 0
[...]
CELL_DATA 1024
SCALARS scalar_value float 1
LOOKUP_TABLE default
-1.09272e-09
1.24836e-10
-8.88052e-08
-1.82219e-08
0
0
0
-2.2416e-10
2.76544e-10
-1.89619e-08
-1.29141e-07
0
0
0
0
0
-1.08574e-10
-3.05292e-09
2.58317e-08
-1.82743e-09
-6.34757e-10
0
0
0
0
0
0
-7.94571e-09
-6.21265e-10
-6.81822e-08
-4.13037e-07
0
8.36284e-06
4.78529e-07
0.15262
0.296055
-0.0303507
0.0221895
6.85098e-06
5.6391e-07
1.11069
1.64169
0.183175
-5.93055e-05
7.41593e-07
7.31022e-06
-0.00320861
-0.000132848
9.22369e-06
-1.016e-06
-0.0184365
-0.000216414
9.22169e-05
-0.00365264
-0.000938463
-0.00295791
-0.00803545
-0.00107008
-7.49923e-05
-0.00511359
-0.00129899
-0.0134891
-0.00676964
-0.00250538
0
0
0
0
0
4.41518e-10
0
0
0
0
-1.79611e-09
1.59379e-10
-3.47234e-08
8.17125e-09
9.56843e-08
0
-3.73525e-10
0
0
-3.53034e-08
-4.00937e-09
-2.17842e-07
-9.9337e-07
-3.42036e-07
0
0
0
0
-1.86013e-09
-2.39355e-07
-1.91266e-06
-2.51183e-08
-5.60284e-05
0.00118414
1.23109e-06
1.44165e-07
-0.00352703
0.1233
1.41007
5.21464e-05
-0.000721471
1.53898e-05
-1.51202e-06
0.0262636
0.00636986
0.807669
2.26661
2.78924
3.16435
1.44448
0.493169
7.53907e-05
-1.02394e-05
0.00143449
0.0103534
2.52905
3.40489
1.85721
0.380522
0.000677844
0.00219511
8.31703e-05
-6.7943e-07
3.10695
-1.64939e-07
0
0
-1.81142e-09
-4.69215e-09
3.51374e-10
0
0
0
0
0
-2.8886e-09
-1.80386e-08
1.27392e-10
5.70011e-10
0
0
0
0
4.22748e-10
0
0
1.87393e-09
-3.57096e-09
0
0
0
0
0
-3.5485e-10
-1.65074e-09
1.8067e-09
1.20611e-07
-1.76093e-07
5.15599e-08
8.78533e-05
4.64844e-05
-1.05374e-06
5.95773e-09
-7.70379e-07
3.1399e-07
4.1804e-08
0.00131817
-0.0014923
-1.07485e-05
-0.000116443
1.04732e-05
-2.23853e-06
5.10743e-06
-1.24709e-07
-0.000136531
6.90578e-05
-2.10972e-05
0.00162014
0.0175108
-0.0045253
-4.69338e-07
1.09545e-07
1.2549e-06
7.21296e-08
5.66812e-05
-0.000567473
0.0048751
0.0132697
0
0
0
0
0
0
0
0
0
0
-3.37084e-10
1.53493e-09
0
0
0
1.38212e-10
-1.54977e-09
0
0
0
0
0
0
0
1.62607e-09
-2.24365e-10
0
0
-4.16486e-10
1.35502e-09
0
0
6.36032e-09
-2.73162e-07
-5.59536e-09
1.52095e-08
4.88644e-08
-4.60331e-08
5.98633e-07
-1.7993e-08
7.34716e-09
-1.2614e-05
-3.60633e-06
6.70522e-06
-1.0478e-05
-0.000285028
1.00478e-07
-2.57885e-08
-3.11902e-09
7.87857e-05
4.26427e-05
1.60123e-08
-3.99057e-09
1.66025e-08
-2.6541e-07
-2.2129e-08
7.62796e-06
-2.00281e-06
3.01079e-05
-0.000209426
-5.30037e-06
-0.000278798
8.31957e-08
7.39084e-06
2.78292
2.2389
2.05564
2.58912
2.84734
2.95836
0.00101323
-0.000658455
0.00353529
-0.00498541
0.000719719
0.00127876
0.512943
0.774709
0.264714
0.0779397
0.530908
0.809808
0.0075358
-0.00135221
1.29495
0.523902
-6.26974e-05
0.0108633
0.00232566
-0.00106268
0.000344072
0.00507987
-0.000148684
0.00015775
0.000451824
0.00027227
-9.77796e-08
1.96137e-06
4.6415e-07
-4.21595e-08
-0.000511955
0.0845935
0.00025758
-4.40519e-05
-0.000245712
0.000328193
2.14931e-05
0.000796677
0.00412125
-0.000439212
2.54179e-05
0.00040385
-0.00016184
-0.000262414
0.00104526
-3.89165e-06
6.18306e-05
2.74825e-05
9.90351e-06
0.000160488
-5.40474e-06
8.61324e-06
-7.7781e-07
-1.81261e-06
2.72858e-07
-4.91351e-07
-6.08133e-06
1.55791e-06
4.64887
4.6469
4.18804
4.60555
4.64656
4.62752
4.37841
3.60011
3.62158
4.32276
2.8077
2.63779
4.64624
4.62368
4.64286
4.44897
2.84873
4.33635
3.9689
4.48748
4.55416
4.43958
3.76626
4.60225
4.62356
4.02782
4.21082
3.81331
3.52492
3.68839
4.28829
4.1162
2.1348
1.60634
3.52063
0.387102
-0.00324808
-0.00358039
0.000845042
0.000249446
-0.0003804
2.58121e-05
0.154177
3.35983e-05
-0.000965421
-0.000419841
-0.000194109
0.000204221
0.495107
2.37455
-0.00941055
-0.00335207
-0.000313911
-2.17001e-05
0.000911821
0.000364762
-0.00137648
-0.00270855
0.146975
1.3469
-1.98224e-06
-0.000226802
-2.01462e-05
0.00040338
2.53476
0.751148
4.6465
4.64599
4.63272
4.36012
0.310178
4.64641
4.64592
4.34367
4.62911
3.5676
0.157328
0.760701
2.2233
0.303532
0.00287706
3.52938
1.98207
2.0329
3.59055
4.39082
4.63518
4.64601
4.63298
4.64375
4.4446
3.79727
4.64528
4.63447
4.64611
4.63061
3.4859
4.37242
-0.00117314
-0.000859624
-0.00161509
0.0472755
1.47918
3.15752
4.33799
-0.000656358
-0.000526234
4.28073e-05
0.875589
4.62771
4.254
0.00290665
0.407174
2.87167
4.24712
4.6226
-0.00133237
0.559994
2.9903
-0.000351586
0.000260829
-0.000427507
0.000913395
0.000146445
0.00035569
-0.00536508
-0.00388213
-0.000509611
1.58012
3.21202
0.000962643
0.143669
4.17589
4.59631
1.93005
3.45876
0.305874
-0.00173445
4.62839
4.33012
4.64674
4.601
4.6471
4.6461
4.64698
4.64568
4.59969
4.19782
0.140593
0.000803538
1.57916
3.23468
4.64721
4.20826
1.627
3.27039
4.64702
0.162503
-0.000326977
4.64592
2.47216
0.140339
4.63742
4.25446
0.00439459
0.00156126
-0.00015913
0.000849924
-0.00324006
-0.00556208
3.14461
0.756517
4.26087
4.62065
2.10754
0.0760943
4.01693
4.58603
0.00186432
0.00299334
0.000611769
3.06098e-05
-0.00151948
-0.000834494
-0.000866736
-0.000791285
4.28843
4.63867
2.65945
0.30977
-7.33357e-05
-0.000634907
5.42213e-08
1.03976e-08
2.328e-07
0
0
-3.01164e-08
-2.30571e-09
1.28712e-09
-2.48311e-10
2.06183e-08
0
0
1.95458e-09
-8.83384e-09
-2.87294e-10
0
2.59934e-09
-6.08188e-09
-7.40601e-10
-9.54159e-07
0
0
9.73287e-10
-5.54642e-09
0
0
1.26315e-08
1.80364e-10
0
0
0
0
0.0175498
3.02562e-05
-0.000224236
1.36697e-05
1.38377e-06
0.267168
0.629634
0.0266858
0.00538709
0.00274414
8.29083e-05
-4.99957e-07
3.33983e-06
0.00832011
0.00777392
-0.000429355
-0.00080748
0.000148391
-2.16317e-06
0.00343218
-3.16134e-05
4.24111e-06
8.83646e-05
-0.000874252
-4.36337e-07
8.95547e-07
-1.59559e-05
3.27255e-07
-4.89342e-08
-3.26655e-05
3.95354e-09
1.91543e-08
2.28775e-10
2.95156e-08
-2.55191e-07
-1.33802e-09
2.00251e-09
8.27188e-07
2.62411e-06
-3.37936e-05
0.000167579
-6.71983e-09
-4.12916e-08
2.07523e-09
2.6342e-06
6.85079e-07
4.98561e-06
0.000166041
1.6896e-09
-7.78777e-10
1.36983e-08
-1.34456e-07
-1.32703e-05
0.000114635
5.05737e-07
3.61961e-07
-3.02164e-09
7.39008e-09
6.50403e-10
0
-5.59776e-06
8.57309e-07
3.97019e-09
-1.37717e-07
0.000792454
0.00899866
0.012707
0.000439736
0.160693
0.256847
1.94954
3.72946
4.48203
4.63313
4.63524
1.43753
4.25459
3.25727
4.62014
4.6486
-8.16327e-05
0.00645693
0.155082
1.54103
4.40296
4.16744
3.41224
4.26257
2.58841
0.0023611
0.069722
0.000179959
2.84702e-05
0.36422
1.45786
0.748129
1.0943e-08
-1.55916e-09
4.44634e-05
0.000487045
-3.112e-07
1.70125e-06
1.10253e-08
8.00348e-10
1.82172e-06
-0.000118625
8.35482e-07
-4.98544e-08
-2.40944e-10
-9.00329e-10
-2.99887e-08
-1.43531e-09
0
0
-6.22548e-08
-9.68614e-09
-2.74646e-10
0.00576065
-3.15696e-07
-2.30878e-05
4.00628e-06
1.14173e-06
8.17491e-08
0.000237304
-6.31845e-07
4.67636e-07
4.61899e-05
0.00645722
-0.0102295
-0.00188346
2.78001
1.6034
0.468352
0.0367303
0.616152
0.0660022
4.24983
4.40074
3.5676
2.09437
0.0101175
0.207485
3.63786
4.06224
2.80135
1.38955
0.964067
0.0751586
3.2056
3.38563
3.96664
2.8462
4.49558
4.64342
4.63693
4.62849
4.65024
4.62697
4.24917
4.509
0
2.10255e-10
0
0
1.8565e-09
7.51348e-09
-1.20072e-07
0
0
0
0
-9.76038e-10
1.02462e-10
-3.0556e-08
-4.99447e-07
-2.34708e-06
1.59569e-05
2.91724e-08
8.02868e-09
0
0
1.4249e-10
1.2427e-09
-4.5449e-07
-1.97707e-05
1.02595e-07
6.30303e-08
1.45506e-09
1.16555e-08
1.02527e-10
0
-2.67529e-06
-0.00160804
-0.00725841
-2.70362e-05
-0.000628387
0.0031534
0.0145145
0.0039414
-0.00148921
-0.000725667
-0.00402214
-0.000205496
-9.04955e-06
0.0124959
0.00717554
-0.00125697
-0.00359012
1.70509
-0.00203108
-0.000161811
-0.00229086
-0.00670226
0.186522
0.342211
0.00261012
0.0226457
0.0137593
0.0171181
-0.00135163
0.00105043
1.46083
0.0355805
0.654541
1.05396
2.22743
4.64936
4.52733
4.64459
4.6032
4.23088
3.43367
0.665205
2.35992
4.64499
4.62678
4.63345
4.64494
4.38606
3.65349
0.298045
0.00371165
4.30187
3.41983
1.87259
4.62593
4.64799
4.64713
2.4108
0.814666
4.30267
3.59631
4.59087
4.6441
4.64499
4.64456
4.21764
2.70714
-0.000725252
0.000148601
0.000287523
0.00207897
4.55299
-0.00382867
-0.000587051
0.000331068
-0.000788772
-0.00109394
0.000260542
0.429341
1.34237
3.65298
0.00176764
3.81145
4.54974
-0.00121722
0.0150885
1.64811
0.000589274
0.000126397
0.00052352
3.7624
-0.0112874
1.3161
-0.00375999
-0.000574456
6.2162e-05
0.000309631
4.61025
4.44877
4.65219
4.64819
4.59927
4.35704
4.64483
4.6484
3.82028
4.02964
3.21751
1.97745
0.59051
4.35303
3.67994
2.92749
1.48829
0.205513
4.25879
3.98669
4.60935
4.54674
4.61133
4.63328
4.64952
4.41865
3.54471
4.64505
3.47819
1.60919
4.6416
4.43076
0.000167115
-0.000487851
-0.00219911
0.00252672
0.000780057
0.00203299
3.33692e-06
-0.00105824
-0.0132871
0.000260861
0.000269817
4.49107e-05
2.0859e-05
2.57675e-05
0.000357394
-0.000924486
0.195819
1.7213
0.000513296
-0.000913189
4.42591e-05
-2.08321e-05
-1.73273e-05
1.14924e-05
0.0011396
0.128169
-0.00325081
0.00115836
0.000260346
0.000256323
4.82144e-06
-0.000221141
0.0150474
0.695578
0.720163
-0.0236411
3.86075
3.6412
3.13694
1.97077
3.89407
4.24108
4.25411
4.06035
4.53119
4.59356
1.80326
3.85287
3.03771
4.33959
4.56275
3.97966
4.4379
3.20362
2.04455
4.64231
4.61507
0.465648
3.63965
4.29334
4.58192
2.40218
4.6455
4.64266
5.90563e-06
0.66667
1.1697
-0.000958723
-0.000482141
0.000625863
-0.00199425
-2.37074e-05
0.113132
-0.0150925
0.0248345
-0.000349995
-0.000157756
0.000134038
0.000374758
0.00188945
0.00529618
-0.00181683
0.00611582
0.000714916
-0.000381428
0.00270384
4.54368e-06
4.29377e-05
0.00424054
-0.00268534
-9.71562e-05
0.00131707
0.000623222
-8.06721e-05
8.25469e-05
2.21687e-05
-0.000801201
3.04564e-05
-0.00189659
0.00997222
0.0157819
-0.0058957
-0.0174533
-0.00349461
-0.00651955
-0.00480342
0.00025138
-0.000556405
-4.72893e-06
-0.000758689
-0.000177053
-0.00059804
0.834992
0.54327
0.929791
0.599264
-0.010237
-0.00218356
0.133399
-0.0431253
2.37173
1.88792
2.54353
2.1048
0.962752
1.2089
1.51418
1.34808
0.000182548
-0.00119041
0.000623344
1.75926e-05
3.91973e-06
2.28758e-06
-0.000315208
1.64867e-05
-1.35848e-05
1.33357e-05
-1.29468e-06
-1.01335e-08
0.527273
1.68447e-06
-3.50561e-06
-6.04575e-08
2.39768e-08
0.0133891
0.0146991
0.0130059
-0.00143467
0.154916
-0.000699559
-0.00038728
-6.57952e-07
-4.2722e-05
0.00161679
0.000148053
1.21506e-05
-4.04229e-06
7.18252e-05
4.04398e-05
