# vtk DataFile Version 2.0
Unstructured Grid by M++
ASCII
DATASET UNSTRUCTURED_GRID
POINTS 1089 float
  0.968750   0.906250 0
  0.968750   0.937500 0
  1.000000   0.906250 0
  1.000000   0.937500 0
  1.000000   0.968750 0
  0.906250   0.906250 0
  0.906250   0.875000 0
  0.906250   0.812500 0
  0.906250   0.843750 0
  0.937500   0.906250 0
  0.937500   0.937500 0
  0.937500   0.843750 0
  0.937500   0.875000 0
  0.968750   0.875000 0
  0.968750   0.656250 0
  0.968750   0.687500 0
  1.000000   0.656250 0
  1.000000   0.625000 0
  1.000000   0.687500 0
  0.906250   0.656250 0
  0.906250   0.687500 0
  0.906250   0.625000 0
  0.906250   0.531250 0
  0.906250   0.562500 0
  0.906250   0.593750 0
  0.937500   0.656250 0
  0.937500   0.687500 0
  0.937500   0.531250 0
  0.937500   0.562500 0
  0.937500   0.593750 0
  0.937500   0.625000 0
  0.968750   0.625000 0
  0.968750   0.593750 0
  1.000000   0.593750 0
  0.968750   0.562500 0
  1.000000   0.562500 0
  1.000000   0.531250 0
  0.968750   0.531250 0
  0.781250   1.000000 0
  0.812500   0.781250 0
  0.812500   0.812500 0
  0.875000   0.843750 0
  0.875000   0.812500 0
  0.875000   0.875000 0
  0.781250   0.781250 0
  0.843750   0.843750 0
  0.843750   0.812500 0
  0.875000   0.781250 0
  0.843750   0.781250 0
  0.781250   0.750000 0
  0.781250   0.718750 0
  0.781250   0.687500 0
  0.812500   0.750000 0
  0.812500   0.718750 0
  0.812500   0.531250 0
  0.812500   0.687500 0
  0.812500   0.656250 0
  0.812500   0.562500 0
  0.812500   0.593750 0
  0.812500   0.625000 0
  0.875000   0.687500 0
  0.875000   0.656250 0
  0.875000   0.593750 0
  0.875000   0.562500 0
  0.875000   0.625000 0
  0.781250   0.531250 0
  0.781250   0.562500 0
  0.781250   0.625000 0
  0.781250   0.593750 0
  0.781250   0.656250 0
  0.843750   0.656250 0
  0.843750   0.593750 0
  0.843750   0.562500 0
  0.843750   0.625000 0
  0.843750   0.687500 0
  0.843750   0.750000 0
  0.875000   0.531250 0
  0.843750   0.531250 0
  0.656250   0.906250 0
  0.656250   0.937500 0
  0.656250   1.000000 0
  0.656250   0.968750 0
  0.687500   1.000000 0
  0.687500   0.968750 0
  0.687500   0.937500 0
  0.718750   0.937500 0
  0.718750   0.968750 0
  0.718750   1.000000 0
  0.656250   0.781250 0
  0.656250   0.812500 0
  0.656250   0.843750 0
  0.656250   0.875000 0
  0.750000   0.968750 0
  0.750000   1.000000 0
  0.750000   0.656250 0
  0.750000   0.625000 0
  0.687500   0.656250 0
  0.687500   0.687500 0
  0.687500   0.625000 0
  0.718750   0.656250 0
  0.718750   0.687500 0
  0.718750   0.718750 0
  0.656250   0.531250 0
  0.656250   0.562500 0
  0.656250   0.656250 0
  0.656250   0.687500 0
  0.656250   0.750000 0
  0.656250   0.718750 0
  0.656250   0.625000 0
  0.656250   0.593750 0
  0.750000   0.687500 0
  0.750000   0.718750 0
  0.750000   0.750000 0
  0.687500   0.531250 0
  0.687500   0.562500 0
  0.687500   0.593750 0
  0.718750   0.625000 0
  0.750000   0.531250 0
  0.718750   0.531250 0
  0.750000   0.562500 0
  0.718750   0.562500 0
  0.718750   0.593750 0
  0.750000   0.593750 0
  0.562500   1.000000 0
  0.562500   0.968750 0
  0.562500   0.937500 0
  0.562500   0.906250 0
  0.562500   0.812500 0
  0.562500   0.843750 0
  0.562500   0.875000 0
  0.625000   0.937500 0
  0.625000   0.906250 0
  0.562500   0.781250 0
  0.625000   0.875000 0
  0.531250   1.000000 0
  0.531250   0.968750 0
  0.531250   0.937500 0
  0.531250   0.812500 0
  0.531250   0.875000 0
  0.531250   0.843750 0
  0.531250   0.906250 0
  0.593750   0.906250 0
  0.593750   0.843750 0
  0.593750   0.875000 0
  0.593750   0.812500 0
  0.625000   0.843750 0
  0.625000   0.812500 0
  0.593750   0.937500 0
  0.625000   1.000000 0
  0.593750   1.000000 0
  0.593750   0.968750 0
  0.625000   0.968750 0
  0.625000   0.781250 0
  0.593750   0.781250 0
  0.562500   0.531250 0
  0.562500   0.750000 0
  0.562500   0.718750 0
  0.562500   0.687500 0
  0.562500   0.656250 0
  0.562500   0.562500 0
  0.562500   0.593750 0
  0.562500   0.625000 0
  0.625000   0.687500 0
  0.625000   0.656250 0
  0.625000   0.593750 0
  0.625000   0.562500 0
  0.625000   0.625000 0
  0.531250   0.531250 0
  0.531250   0.750000 0
  0.531250   0.718750 0
  0.531250   0.687500 0
  0.531250   0.562500 0
  0.531250   0.625000 0
  0.531250   0.593750 0
  0.531250   0.656250 0
  0.593750   0.656250 0
  0.593750   0.593750 0
  0.593750   0.562500 0
  0.593750   0.625000 0
  0.593750   0.687500 0
  0.625000   0.750000 0
  0.593750   0.750000 0
  0.593750   0.718750 0
  0.625000   0.718750 0
  0.625000   0.531250 0
  0.593750   0.531250 0
  0.968750   0.406250 0
  0.968750   0.437500 0
  0.968750   0.468750 0
  0.968750   0.500000 0
  1.000000   0.406250 0
  1.000000   0.375000 0
  1.000000   0.437500 0
  1.000000   0.468750 0
  1.000000   0.500000 0
  0.906250   0.500000 0
  0.906250   0.406250 0
  0.906250   0.437500 0
  0.906250   0.281250 0
  0.906250   0.312500 0
  0.906250   0.343750 0
  0.906250   0.375000 0
  0.937500   0.406250 0
  0.937500   0.500000 0
  0.937500   0.468750 0
  0.937500   0.437500 0
  0.937500   0.281250 0
  0.937500   0.312500 0
  0.937500   0.343750 0
  0.937500   0.375000 0
  0.968750   0.375000 0
  1.000000   0.281250 0
  0.968750   0.281250 0
  1.000000   0.312500 0
  0.968750   0.312500 0
  0.968750   0.343750 0
  1.000000   0.343750 0
  0.968750   0.125000 0
  0.968750   0.156250 0
  0.968750   0.187500 0
  1.000000   0.000000 0
  1.000000   0.156250 0
  1.000000   0.125000 0
  1.000000   0.187500 0
  1.000000   0.218750 0
  0.531250   0.781250 0
  1.000000   0.250000 0
  0.906250   0.250000 0
  0.906250   0.218750 0
  0.937500   0.250000 0
  0.937500   0.218750 0
  0.968750   0.250000 0
  0.906250   0.031250 0
  0.906250   0.000000 0
  0.906250   0.062500 0
  0.906250   0.093750 0
  0.906250   0.125000 0
  0.937500   0.156250 0
  0.937500   0.031250 0
  0.937500   0.000000 0
  0.937500   0.062500 0
  0.937500   0.093750 0
  0.937500   0.125000 0
  1.000000   0.031250 0
  0.968750   0.031250 0
  0.968750   0.000000 0
  1.000000   0.062500 0
  0.968750   0.062500 0
  0.968750   0.093750 0
  1.000000   0.093750 0
  0.781250   0.312500 0
  0.781250   0.343750 0
  0.812500   0.500000 0
  0.812500   0.468750 0
  0.812500   0.437500 0
  0.812500   0.281250 0
  0.812500   0.312500 0
  0.812500   0.343750 0
  0.812500   0.375000 0
  0.875000   0.281250 0
  0.875000   0.406250 0
  0.875000   0.343750 0
  0.875000   0.312500 0
  0.875000   0.375000 0
  0.843750   0.281250 0
  0.843750   0.312500 0
  0.843750   0.375000 0
  0.843750   0.343750 0
  0.781250   0.500000 0
  0.781250   0.468750 0
  0.781250   0.437500 0
  0.781250   0.406250 0
  0.875000   0.500000 0
  0.843750   0.500000 0
  0.843750   0.468750 0
  0.875000   0.468750 0
  0.781250   0.281250 0
  0.843750   0.218750 0
  0.843750   0.250000 0
  0.843750   0.187500 0
  0.843750   0.156250 0
  0.875000   0.218750 0
  0.875000   0.250000 0
  0.875000   0.187500 0
  0.812500   0.062500 0
  0.812500   0.250000 0
  0.812500   0.218750 0
  0.812500   0.187500 0
  0.812500   0.156250 0
  0.812500   0.125000 0
  0.843750   0.093750 0
  0.843750   0.062500 0
  0.875000   0.125000 0
  0.875000   0.093750 0
  0.875000   0.062500 0
  0.781250   0.250000 0
  0.781250   0.218750 0
  0.781250   0.187500 0
  0.093750   0.937500 0
  0.125000   1.000000 0
  0.937500   0.718750 0
  0.250000   0.000000 0
  0.093750   0.968750 0
  0.125000   0.968750 0
  0.000000   0.718750 0
  0.000000   0.750000 0
  0.125000   0.531250 0
  0.125000   0.562500 0
  0.093750   0.531250 0
  0.031250   0.750000 0
  0.125000   0.468750 0
  0.156250   0.468750 0
  0.500000   0.375000 0
  0.156250   0.500000 0
  0.406250   0.406250 0
  0.406250   0.437500 0
  0.406250   0.500000 0
  0.406250   0.468750 0
  0.406250   0.375000 0
  0.750000   0.312500 0
  0.437500   0.406250 0
  0.437500   0.500000 0
  0.437500   0.468750 0
  0.437500   0.437500 0
  0.468750   0.437500 0
  0.468750   0.468750 0
  0.406250   0.281250 0
  0.406250   0.312500 0
  0.062500   0.375000 0
  0.406250   0.343750 0
  0.062500   0.406250 0
  0.500000   0.468750 0
  0.500000   0.500000 0
  0.437500   0.281250 0
  0.437500   0.312500 0
  0.437500   0.343750 0
  0.093750   0.406250 0
  0.437500   0.375000 0
  0.093750   0.437500 0
  0.468750   0.375000 0
  0.125000   0.437500 0
  0.500000   0.281250 0
  0.468750   0.281250 0
  0.500000   0.312500 0
  0.468750   0.312500 0
  0.468750   0.343750 0
  0.500000   0.343750 0
  0.843750   0.906250 0
  0.156250   0.187500 0
  0.468750   0.187500 0
  0.468750   0.218750 0
  0.468750   0.250000 0
  0.406250   0.031250 0
  0.750000   0.812500 0
  0.062500   0.093750 0
  0.406250   0.000000 0
  0.750000   0.781250 0
  0.062500   0.062500 0
  0.500000   0.187500 0
  0.500000   0.218750 0
  0.500000   0.250000 0
  0.437500   0.031250 0
  0.781250   0.812500 0
  0.093750   0.093750 0
  0.437500   0.000000 0
  0.437500   0.062500 0
  0.781250   0.843750 0
  0.093750   0.125000 0
  0.406250   0.187500 0
  0.406250   0.250000 0
  0.406250   0.218750 0
  0.437500   0.250000 0
  0.437500   0.218750 0
  0.437500   0.187500 0
  0.500000   0.000000 0
  0.500000   0.031250 0
  0.468750   0.031250 0
  0.468750   0.000000 0
  0.500000   0.062500 0
  0.468750   0.062500 0
  0.812500   0.843750 0
  0.125000   0.125000 0
  0.812500   0.875000 0
  0.125000   0.156250 0
  0.500000   0.093750 0
  0.843750   0.875000 0
  0.156250   0.156250 0
  1.000000   1.000000 0
  0.312500   0.281250 0
  0.656250   0.218750 0
  0.437500   0.156250 0
  0.312500   0.500000 0
  0.437500   0.125000 0
  0.312500   0.468750 0
  0.437500   0.093750 0
  0.781250   0.031250 0
  0.312500   0.437500 0
  0.312500   0.406250 0
  0.312500   0.312500 0
  0.312500   0.343750 0
  0.312500   0.375000 0
  0.375000   0.437500 0
  0.375000   0.406250 0
  0.375000   0.343750 0
  0.718750   0.281250 0
  0.375000   0.375000 0
  0.968750   1.000000 0
  0.281250   0.281250 0
  0.406250   0.156250 0
  0.281250   0.500000 0
  0.406250   0.125000 0
  0.281250   0.468750 0
[...]
CELL_DATA 1024
SCALARS scalar_value float 1
LOOKUP_TABLE default
-0.0644177
-0.00896795
-0.0217667
-0.0291517
-0.000304745
0.000116622
-1.40737e-05
-0.042376
-0.00596061
-0.0132365
-0.00361394
9.81777e-05
-0.000245538
-1.19797e-05
-1.99742e-06
0.000131117
-0.000235024
0.0273051
0.0347027
-0.0363697
-0.00671948
4.67965e-06
-9.33736e-07
-2.33522e-07
-1.96736e-05
-2.96496e-06
-1.00624e-05
-0.0117861
0.000220694
0.0235944
-0.132886
-2.08848e-06
0.0213563
0.000427217
0.00110255
0.00388178
0.0695719
0.0239612
0.0209669
-0.00749796
0.0254482
0.00874831
0.119172
0.0235111
0.0160395
0.0386428
0.0327561
0.0275876
0.153046
0.0158097
0.032674
-0.0236632
0.00463329
0.00215921
0.0119854
-0.00196069
0.0141699
0.00668079
0.0169812
9.29835e-05
0.0138431
0.0341172
0.0185699
0.000792452
3.97719e-06
4.82332e-05
-1.33931e-07
-3.19009e-07
0.00010487
-0.00228935
3.20909e-06
4.18695e-05
-1.58601e-07
-1.06988e-07
-0.00100719
0.000214634
-0.012042
-0.00670363
0.101475
3.31483e-06
2.98943e-05
-7.241e-07
-2.15156e-07
-0.00136561
-4.40662e-05
0.0129055
0.106552
0.481151
-3.79751e-07
-1.7169e-07
6.0984e-06
5.43744e-05
-6.5538e-05
0.0193249
0.0874271
-0.00230163
3.05471
3.31351
1.46815
2.66823
3.97821
4.37255
4.51723
3.72685
4.13157
3.23662
2.15832
4.5733
4.36052
4.68465
4.50005
0.104414
0.116684
2.37623
1.40695
1.56769
0.789849
1.50677
1.19205
2.61877
2.74142
0.00438216
-0.0283634
0.300081
0.0292737
0.680668
0.385127
4.47046
1.20114
1.73764e-06
1.46049e-07
0.00140707
0.000247467
0.000197262
-3.09141e-05
7.17209e-06
6.75941e-06
1.75715e-08
2.92756e-07
0.0311529
0.744815
-4.34443e-06
0.00101046
-3.14965e-06
1.30666e-06
-1.30544e-06
-6.0902e-08
0.000461041
-1.25062e-05
-9.3397e-06
0.00349472
-0.00589813
-2.11362e-07
-3.22576e-09
-3.74731e-05
-4.10886e-06
3.23373e-05
0.00535122
0.0106735
1.54955
1.38606
0.0353823
0.0213053
0.528282
1.01911
0.0870015
-0.0322253
-0.0101201
0.0236289
1.36416
1.95136
3.3163
1.07848
0.646314
1.78089
1.51475
3.48658
2.83283
4.50702
4.201
3.86946
4.57913
4.4471
4.67288
3.27161
2.97442
3.8945
3.45389
4.21348
3.86021
3.16245
3.50684
0.000120467
1.62473e-05
8.63155e-05
0.000264775
0.000100393
0.000169947
3.57401e-05
-4.85157e-05
-3.24633e-05
6.60813e-05
5.01472e-05
-3.84152e-05
8.81883e-07
0.000115297
4.46339e-05
-1.79862e-06
-1.47711e-05
1.77316e-05
2.30857e-06
2.11689e-05
6.21764e-06
8.09449e-06
3.08762e-05
-1.19045e-05
0.00740194
-9.77188e-05
3.71225e-05
2.00772e-05
3.59073e-05
-0.000609497
6.42968e-06
-2.62127e-06
-8.8046e-07
0.000161403
-7.27032e-05
-2.16636e-05
0.000401353
5.30817e-05
0.000859778
2.44089e-05
-1.64359e-05
0.00170627
0.00215447
0.000531922
0.000109846
0.00238781
0.00377864
0.00396189
0.00908349
0.00103804
-0.0141837
-4.78027e-05
-0.000607108
8.59808e-05
0.000550425
0.0044122
-0.00493088
-0.000374256
-0.00771103
-0.0266239
-0.000585123
0.00121446
0.000434719
-3.55228e-05
0.0100784
0.00726309
0.000436803
-0.000296937
-0.000354515
0.00187903
0.000379225
0.0016139
-1.69689e-05
3.80207e-05
6.43829e-06
7.42361e-06
0.012157
0.00422269
9.21832e-05
4.97433e-05
1.55333e-05
0.000204155
0.00122783
0.0045266
-9.36321e-05
-4.93727e-05
-1.88709e-05
0.000103164
-7.94042e-06
-2.9396e-06
-3.57705e-06
1.64552e-05
-1.29341e-06
3.13333e-06
-2.14252e-06
-2.28621e-06
-8.74947e-09
3.35783e-08
-3.55934e-10
4.04382e-10
-4.01441e-05
4.67537e-05
3.22077e-06
8.82417e-07
-8.98524e-06
1.75118e-05
-1.83299e-05
4.97688e-06
1.72471e-06
2.76815e-06
-5.67224e-07
1.6416e-06
5.49131e-07
3.91072e-07
8.02711e-06
-2.88816e-07
1.24378e-06
9.46235e-08
-2.50176e-08
3.25681e-06
-2.54073e-06
2.19159e-07
-3.28714e-08
9.89004e-08
-2.22246e-07
6.78175e-09
1.33472e-07
1.32148e-07
1.791
1.08939
3.76406
2.75641
0.625903
0.196135
0.00230471
-0.000887595
4.63056
4.64174
4.46899
4.48158
4.13198
4.57653
1.98226
0.0855467
-9.51638e-05
2.69369
3.00634
1.275
0.12201
0.00207428
-0.00125627
0.0416096
0.0199872
-0.0113127
-0.0043143
-0.0387778
0.0177388
0.000129377
0.000556735
0.00117531
-0.000604851
0.000195967
-0.00216758
-0.000122782
4.81711e-05
-3.68215e-05
-6.23263e-05
3.65031e-05
-2.14139e-05
-3.88507e-07
-1.51306e-05
-8.46283e-05
6.41207e-05
-6.09133e-05
2.96163e-05
3.38763e-05
-0.00015856
0.000534707
-0.00027375
7.1019e-05
-5.80492e-06
-4.87284e-09
4.7975e-05
-4.49216e-05
0.000138992
-6.22104e-05
-0.000168532
9.89658e-05
-6.92888e-07
3.76889e-06
-2.28757e-05
-1.72141e-07
4.6233
4.33114
4.65239
4.39368
4.64401
4.64107
4.17549
4.6595
4.43404
4.62611
4.63836
4.41813
4.02288
4.00394
4.14572
1.93739
1.03455
4.37213
3.43029
4.54135
4.64868
4.64927
4.60776
4.17473
0.507373
2.84921
4.64943
4.64984
3.88412
4.61732
4.39978
2.33673
0.00623033
0.588902
-0.000801948
-0.000264999
-0.00107808
-0.00142196
-0.00226247
-0.00414619
0.00937989
-0.00049671
-0.000119541
-0.000502258
-0.000293695
2.97407
0.269171
-0.000174768
0.00204769
0.00922375
0.30233
2.98846
-0.00241158
0.00122341
0.010077
0.000101358
-9.89996e-05
0.000430292
0.000261515
-1.80861e-05
-6.82827e-05
0.000706321
-0.000252385
-0.00023108
2.79338
3.9269
0.0380932
1.06947
4.51853
4.65331
3.22079
4.19092
1.76089
0.309478
4.65289
4.60816
4.65171
4.64698
4.65087
4.44776
4.64749
4.56972
4.64988
4.53449
1.02367
0.0356113
2.78113
3.95178
4.36556
4.56228
3.16116
4.12816
4.64212
1.58227
0.236688
4.60012
0.0112358
0.00644865
3.20366
0.161066
0.00233111
0.000690491
-3.33698e-05
0.000163456
-0.000655222
-0.00281622
0.00476012
-0.00407418
0.463171
3.11661
-0.00307584
0.00146275
-0.00323743
1.80031
0.00141465
0.00365913
0.000313758
0.000206234
-0.000711611
-0.000305578
-3.96205e-05
-0.000971627
0.501157
3.5159
0.0104535
0.00449927
-3.12461e-05
-0.000223897
0.00298572
0.00256814
2.78894
0.509323
0.212654
2.2777
1.59832
1.05777
0.770602
0.00902013
-0.000272039
-0.0097745
0.00116374
-0.00654544
0.00175778
-0.0115259
0.000236512
0.000160208
0.00060596
3.06909
-0.00107324
-0.00168987
0.000728462
0.00206144
0.000426319
0.000894979
0.0967358
0.000133919
-0.000108031
0.000318983
0.000181684
0.000435178
3.63152
0.0171638
-0.0206937
3.76565
3.3797
4.21754
4.00963
4.49873
4.6671
4.55784
4.17973
0.398407
0.867716
2.82684
3.65553
1.42161
1.98778
1.2883
1.19371
3.06101
0.289363
-0.0303778
1.23688
2.30007
0.00714816
-0.0102148
0.0271703
0.00781889
-0.00311602
0.0229765
-0.000116354
-0.000480771
4.35525
4.66302
4.65738
4.66232
4.6619
4.65006
4.64083
4.61144
4.49833
4.53106
4.62913
4.40149
4.31707
4.56481
3.96633
3.59216
4.52008
4.13669
4.70623
4.69871
4.65549
4.56026
4.66374
4.66062
4.66184
4.75609
4.21286
3.18807
4.65097
4.65224
4.7136
4.65694
4.11724
3.29482
2.49622
3.13925
1.57011
1.94728
0.530597
0.0324705
0.0885284
0.0565246
-0.023724
0.454724
-0.0128947
-0.0672139
-0.0144925
-0.00937387
4.13748
3.26995
2.19566
1.21719
1.27696
1.97363
0.780628
0.867652
4.65666
4.23659
4.23645
4.36567
4.57003
4.29991
4.55219
4.41544
3.69136
3.46546
2.53499
3.17816
1.0983
1.71876
0.48619
0.276305
1.4814
1.82257
1.02532
0.868437
0.0115841
-0.107898
0.677388
-0.0657885
0.00601926
0.00515346
0.630272
0.0514656
0.0134803
3.94663
1.73125
4.308
2.99551
3.90672
3.94069
3.75856
4.18402
4.40308
4.34106
2.66296
0.424673
1.43536
0.279432
0.520974
0.615643
0.382471
0.154941
1.27702
0.0548514
0.0212127
0.0200235
-0.0878185
3.43631
3.39891
0.556496
0.118656
1.61148
2.79061
1.137
2.72949
0.120789
0.0469782
0.0167712
0.141696
0.0359062
0.00684706
0.00929879
0.0190007
0.00232472
-0.00696825
-0.00741498
-0.00507537
-0.00576085
-0.0284144
0.000421987
-0.00224143
-0.0235038
0.055376
0.0835528
-0.0059664
-0.0241072
-0.000908521
0.000131062
-0.075946
-0.0150185
0.097759
0.103385
0.142311
0.418963
0.0877301
-0.00820972
-0.0178116
0.00213934
-0.0293012
-0.0135853
0.0758157
0.0434418
-0.0383156
0.0114635
-0.155241
-0.0370293
-0.0126957
0.00397749
-0.00544885
-0.0027276
-0.000756517
0.00674733
0.0113455
0.0029951
0.0149047
0.0137551
0.0034745
0.00970268
0.0100137
0.0209709
0.0243127
0.0215915
0.0105247
0.0146061
0.00264355
0.0160513
0.0648315
0.0626086
0.0115931
0.0128184
0.00650313
0.000799635
-0.00030958
0.0138064
-0.0230862
-0.00105368
0.0294058
0.298078
0.0281555
-0.0132528
0.0232004
4.16138
4.48322
2.50387
0.0796396
4.55098
4.67777
4.67845
4.59994
4.31146
4.6071
4.01585
1.65443
4.66979
4.57841
4.64892
4.63163
1.83787
0.359775
4.65029
4.3165
3.3621
4.65001
3.76386
4.61715
4.2072
3.97912
4.58723
4.44185
4.63346
4.70065
4.3105
3.02386
0.0456295
-0.00610164
0.000134144
-6.66372e-05
-4.60949e-05
6.62421e-05
0.424378
-0.000304004
4.34946e-05
-7.2149e-05
4.22342e-05
-0.000362876
-5.8547e-05
-0.000780922
0.00127516
0.0134392
-0.000323511
-0.0012373
0.719127
-0.000470359
-0.00351467
-0.0064281
2.55862e-05
0.000171743
4.74768e-05
0.00682134
-0.00252378
-0.00223563
-0.00125462
-0.000384303
-9.58081e-05
6.41933e-05
0.00390808
-0.0131844
-0.034342
-0.00680573
0.00273688
-0.00169519
0.00704736
0.0067008
6.16835e-05
0.00235779
0.00117384
0.000424128
0.000408278
4.57198
4.67228
0.000304225
0.000141361
-8.28994e-05
3.15757
2.68322
2.68515
4.41998
4.21427
1.46124
3.22168
0.197175
-0.00694371
1.14322
0.0185139
-0.000826
-0.0159068
-0.0279107
-0.000162244
6.29099e-05
-0.00032336
0.00023596
-2.09446e-05
2.98586e-05
-3.828e-06
-6.28285e-06
8.43888e-05
2.21685e-06
5.2219e-06
1.76159e-05
-6.07913e-06
7.20401e-07
-0.00017568
0.000335322
-0.000346101
-0.00243124
0.000144947
-0.000127928
-8.49436e-05
2.41139e-05
-1.364e-07
-6.2679e-08
-0.000217088
-0.000171283
0.000278377
-0.000167498
8.62985e-05
3.13512e-05
-2.55683e-06
-5.54749e-05
-3.32443e-05
4.82284e-05
1.66071e-05
5.63832e-05
0.00381412
0.0131323
-0.000493044
0.000316267
-0.000247713
0.00191188
0.00135125
-0.000940446
0.00278533
0.00031364
-6.70745e-05
-7.4625e-05
-2.95657e-05
0.000636515
0.000345459
0.000227304
0.000519293
-2.67379e-05
7.27848e-05
0.0019987
0.000217845
6.35692e-05
-0.000126892
-6.07683e-05
0.00140084
0.000219476
0.00460882
0.00173914
1.3971e-07
-0.00041976
0.000451141
1.00698e-06
4.11795e-06
-1.86701e-05
-4.2097e-06
-1.01175e-05
8.13249e-05
1.95935e-05
-4.70795e-06
-1.09186e-06
8.34204e-07
2.91826e-06
1.33567e-06
3.31718e-06
4.53808e-07
3.46955e-05
-1.54295e-05
2.969e-06
5.95847e-06
-3.43035e-06
-1.13849e-06
-4.37674e-08
-2.18381e-05
4.56299e-05
2.83536e-06
5.52259e-06
-1.38836e-06
1.36907e-07
1.93977e-07
-9.66316e-08
-6.45662e-05
-3.57843e-05
-2.98762e-05
-0.000197409
3.50787e-05
2.57624e-05
3.42289e-05
-2.30451e-05
-3.44378e-05
8.27975e-06
5.87296e-06
2.92435e-06
4.72467e-06
1.01061e-06
-1.87901e-06
-1.57801e-06
-0.000619118
-0.000234188
0.000244267
9.68863e-05
-6.6004e-05
-8.37339e-05
-0.000176212
0.000142518
-0.000447738
0.000145557
-0.000611824
0.00392636
8.1808e-05
-8.54689e-06
-0.000347876
-0.000300715
8.87344e-07
-8.97699e-08
-5.9505e-07
-1.67982e-08
2.27711e-08
-3.02511e-07
1.7043e-06
-5.8609e-07
1.66506e-07
-1.51635e-07
1.79337e-08
2.3318e-09
-1.92333e-05
-1.49936e-08
1.42502e-08
2.82728e-09
-9.57578e-10
-1.45359e-05
3.07417e-05
8.68371e-05
-1.00068e-05
3.5832e-05
9.66227e-07
-1.17123e-06
2.52878e-07
7.01012e-07
6.10375e-06
-3.21158e-06
-2.03633e-07
3.73193e-08
2.63137e-07
7.39774e-07
