# vtk DataFile Version 2.0
Unstructured Grid by M++
ASCII
DATASET UNSTRUCTURED_GRID
POINTS 1089 float
  0.968750   0.906250 0
  0.968750   0.937500 0
  1.000000   0.906250 0
  1.000000   0.937500 0
  1.000000   0.968750 0
  0.906250   0.906250 0
  0.906250   0.875000 0
  0.906250   0.812500 0
  0.906250   0.843750 0
  0.937500   0.906250 0
  0.937500   0.937500 0
  0.937500   0.843750 0
  0.937500   0.875000 0
  0.968750   0.875000 0
  0.968750   0.656250 0
  0.968750   0.687500 0
  1.000000   0.656250 0
  1.000000   0.625000 0
  1.000000   0.687500 0
  0.906250   0.656250 0
  0.906250   0.687500 0
  0.906250   0.625000 0
  0.906250   0.531250 0
  0.906250   0.562500 0
  0.906250   0.593750 0
  0.937500   0.656250 0
  0.937500   0.687500 0
  0.937500   0.531250 0
  0.937500   0.562500 0
  0.937500   0.593750 0
  0.937500   0.625000 0
  0.968750   0.625000 0
  0.968750   0.593750 0
  1.000000   0.593750 0
  0.968750   0.562500 0
  1.000000   0.562500 0
  1.000000   0.531250 0
  0.968750   0.531250 0
  0.781250   1.000000 0
  0.812500   0.781250 0
  0.812500   0.812500 0
  0.875000   0.843750 0
  0.875000   0.812500 0
  0.875000   0.875000 0
  0.781250   0.781250 0
  0.843750   0.843750 0
  0.843750   0.812500 0
  0.875000   0.781250 0
  0.843750   0.781250 0
  0.781250   0.750000 0
  0.781250   0.718750 0
  0.781250   0.687500 0
  0.812500   0.750000 0
  0.812500   0.718750 0
  0.812500   0.531250 0
  0.812500   0.687500 0
  0.812500   0.656250 0
  0.812500   0.562500 0
  0.812500   0.593750 0
  0.812500   0.625000 0
  0.875000   0.687500 0
  0.875000   0.656250 0
  0.875000   0.593750 0
  0.875000   0.562500 0
  0.875000   0.625000 0
  0.781250   0.531250 0
  0.781250   0.562500 0
  0.781250   0.625000 0
  0.781250   0.593750 0
  0.781250   0.656250 0
  0.843750   0.656250 0
  0.843750   0.593750 0
  0.843750   0.562500 0
  0.843750   0.625000 0
  0.843750   0.687500 0
  0.843750   0.750000 0
  0.875000   0.531250 0
  0.843750   0.531250 0
  0.656250   0.906250 0
  0.656250   0.937500 0
  0.656250   1.000000 0
  0.656250   0.968750 0
  0.687500   1.000000 0
  0.687500   0.968750 0
  0.687500   0.937500 0
  0.718750   0.937500 0
  0.718750   0.968750 0
  0.718750   1.000000 0
  0.656250   0.781250 0
  0.656250   0.812500 0
  0.656250   0.843750 0
  0.656250   0.875000 0
  0.750000   0.968750 0
  0.750000   1.000000 0
  0.750000   0.656250 0
  0.750000   0.625000 0
  0.687500   0.656250 0
  0.687500   0.687500 0
  0.687500   0.625000 0
  0.718750   0.656250 0
  0.718750   0.687500 0
  0.718750   0.718750 0
  0.656250   0.531250 0
  0.656250   0.562500 0
  0.656250   0.656250 0
  0.656250   0.687500 0
  0.656250   0.750000 0
  0.656250   0.718750 0
  0.656250   0.625000 0
  0.656250   0.593750 0
  0.750000   0.687500 0
  0.750000   0.718750 0
  0.750000   0.750000 0
  0.687500   0.531250 0
  0.687500   0.562500 0
  0.687500   0.593750 0
  0.718750   0.625000 0
  0.750000   0.531250 0
  0.718750   0.531250 0
  0.750000   0.562500 0
  0.718750   0.562500 0
  0.718750   0.593750 0
  0.750000   0.593750 0
  0.562500   1.000000 0
  0.562500   0.968750 0
  0.562500   0.937500 0
  0.562500   0.906250 0
  0.562500   0.812500 0
  0.562500   0.843750 0
  0.562500   0.875000 0
  0.625000   0.937500 0
  0.625000   0.906250 0
  0.562500   0.781250 0
  0.625000   0.875000 0
  0.531250   1.000000 0
  0.531250   0.968750 0
  0.531250   0.937500 0
  0.531250   0.812500 0
  0.531250   0.875000 0
  0.531250   0.843750 0
  0.531250   0.906250 0
  0.593750   0.906250 0
  0.593750   0.843750 0
  0.593750   0.875000 0
  0.593750   0.812500 0
  0.625000   0.843750 0
  0.625000   0.812500 0
  0.593750   0.937500 0
  0.625000   1.000000 0
  0.593750   1.000000 0
  0.593750   0.968750 0
  0.625000   0.968750 0
  0.625000   0.781250 0
  0.593750   0.781250 0
  0.562500   0.531250 0
  0.562500   0.750000 0
  0.562500   0.718750 0
  0.562500   0.687500 0
  0.562500   0.656250 0
  0.562500   0.562500 0
  0.562500   0.593750 0
  0.562500   0.625000 0
  0.625000   0.687500 0
  0.625000   0.656250 0
  0.625000   0.593750 0
  0.625000   0.562500 0
  0.625000   0.625000 0
  0.531250   0.531250 0
  0.531250   0.750000 0
  0.531250   0.718750 0
  0.531250   0.687500 0
  0.531250   0.562500 0
  0.531250   0.625000 0
  0.531250   0.593750 0
  0.531250   0.656250 0
  0.593750   0.656250 0
  0.593750   0.593750 0
  0.593750   0.562500 0
  0.593750   0.625000 0
  0.593750   0.687500 0
  0.625000   0.750000 0
  0.593750   0.750000 0
  0.593750   0.718750 0
  0.625000   0.718750 0
  0.625000   0.531250 0
  0.593750   0.531250 0
  0.968750   0.406250 0
  0.968750   0.437500 0
  0.968750   0.468750 0
  0.968750   0.500000 0
  1.000000   0.406250 0
  1.000000   0.375000 0
  1.000000   0.437500 0
  1.000000   0.468750 0
  1.000000   0.500000 0
  0.906250   0.500000 0
  0.906250   0.406250 0
  0.906250   0.437500 0
  0.906250   0.281250 0
  0.906250   0.312500 0
  0.906250   0.343750 0
  0.906250   0.375000 0
  0.937500   0.406250 0
  0.937500   0.500000 0
  0.937500   0.468750 0
  0.937500   0.437500 0
  0.937500   0.281250 0
  0.937500   0.312500 0
  0.937500   0.343750 0
  0.937500   0.375000 0
  0.968750   0.375000 0
  1.000000   0.281250 0
  0.968750   0.281250 0
  1.000000   0.312500 0
  0.968750   0.312500 0
  0.968750   0.343750 0
  1.000000   0.343750 0
  0.968750   0.125000 0
  0.968750   0.156250 0
  0.968750   0.187500 0
  1.000000   0.000000 0
  1.000000   0.156250 0
  1.000000   0.125000 0
  1.000000   0.187500 0
  1.000000   0.218750 0
  0.531250   0.781250 0
  1.000000   0.250000 0
  0.906250   0.250000 0
  0.906250   0.218750 0
  0.937500   0.250000 0
  0.937500   0.218750 0
  0.968750   0.250000 0
  0.906250   0.031250 0
  0.906250   0.000000 0
  0.906250   0.062500 0
  0.906250   0.093750 0
  0.906250   0.125000 0
  0.937500   0.156250 0
  0.937500   0.031250 0
  0.937500   0.000000 0
  0.937500   0.062500 0
  0.937500   0.093750 0
  0.937500   0.125000 0
  1.000000   0.031250 0
  0.968750   0.031250 0
  0.968750   0.000000 0
  1.000000   0.062500 0
  0.968750   0.062500 0
  0.968750   0.093750 0
  1.000000   0.093750 0
  0.781250   0.312500 0
  0.781250   0.343750 0
  0.812500   0.500000 0
  0.812500   0.468750 0
  0.812500   0.437500 0
  0.812500   0.281250 0
  0.812500   0.312500 0
  0.812500   0.343750 0
  0.812500   0.375000 0
  0.875000   0.281250 0
  0.875000   0.406250 0
  0.875000   0.343750 0
  0.875000   0.312500 0
  0.875000   0.375000 0
  0.843750   0.281250 0
  0.843750   0.312500 0
  0.843750   0.375000 0
  0.843750   0.343750 0
  0.781250   0.500000 0
  0.781250   0.468750 0
  0.781250   0.437500 0
  0.781250   0.406250 0
  0.875000   0.500000 0
  0.843750   0.500000 0
  0.843750   0.468750 0
  0.875000   0.468750 0
  0.781250   0.281250 0
  0.843750   0.218750 0
  0.843750   0.250000 0
  0.843750   0.187500 0
  0.843750   0.156250 0
  0.875000   0.218750 0
  0.875000   0.250000 0
  0.875000   0.187500 0
  0.812500   0.062500 0
  0.812500   0.250000 0
  0.812500   0.218750 0
  0.812500   0.187500 0
  0.812500   0.156250 0
  0.812500   0.125000 0
  0.843750   0.093750 0
  0.843750   0.062500 0
  0.875000   0.125000 0
  0.875000   0.093750 0
  0.875000   0.062500 0
  0.781250   0.250000 0
  0.781250   0.218750 0
  0.781250   0.187500 0
  0.093750   0.937500 0
  0.125000   1.000000 0
  0.937500   0.718750 0
  0.250000   0.000000 0
  0.093750   0.968750 0
  0.125000   0.968750 0
  0.000000   0.718750 0
  0.000000   0.750000 0
  0.125000   0.531250 0
  0.125000   0.562500 0
  0.093750   0.531250 0
  0.031250   0.750000 0
  0.125000   0.468750 0
  0.156250   0.468750 0
  0.500000   0.375000 0
  0.156250   0.500000 0
  0.406250   0.406250 0
  0.406250   0.437500 0
  0.406250   0.500000 0
  0.406250   0.468750 0
  0.406250   0.375000 0
  0.750000   0.312500 0
  0.437500   0.406250 0
  0.437500   0.500000 0
  0.437500   0.468750 0
  0.437500   0.437500 0
  0.468750   0.437500 0
  0.468750   0.468750 0
  0.406250   0.281250 0
  0.406250   0.312500 0
  0.062500   0.375000 0
  0.406250   0.343750 0
  0.062500   0.406250 0
  0.500000   0.468750 0
  0.500000   0.500000 0
  0.437500   0.281250 0
  0.437500   0.312500 0
  0.437500   0.343750 0
  0.093750   0.406250 0
  0.437500   0.375000 0
  0.093750   0.437500 0
  0.468750   0.375000 0
  0.125000   0.437500 0
  0.500000   0.281250 0
  0.468750   0.281250 0
  0.500000   0.312500 0
  0.468750   0.312500 0
  0.468750   0.343750 0
  0.500000   0.343750 0
  0.843750   0.906250 0
  0.156250   0.187500 0
  0.468750   0.187500 0
  0.468750   0.218750 0
  0.468750   0.250000 0
  0.406250   0.031250 0
  0.750000   0.812500 0
  0.062500   0.093750 0
  0.406250   0.000000 0
  0.750000   0.781250 0
  0.062500   0.062500 0
  0.500000   0.187500 0
  0.500000   0.218750 0
  0.500000   0.250000 0
  0.437500   0.031250 0
  0.781250   0.812500 0
  0.093750   0.093750 0
  0.437500   0.000000 0
  0.437500   0.062500 0
  0.781250   0.843750 0
  0.093750   0.125000 0
  0.406250   0.187500 0
  0.406250   0.250000 0
  0.406250   0.218750 0
  0.437500   0.250000 0
  0.437500   0.218750 0
  0.437500   0.187500 0
  0.500000   0.000000 0
  0.500000   0.031250 0
  0.468750   0.031250 0
  0.468750   0.000000 0
  0.500000   0.062500 0
  0.468750   0.062500 0
  0.812500   0.843750 0
  0.125000   0.125000 0
  0.812500   0.875000 0
  0.125000   0.156250 0
  0.500000   0.093750 0
  0.843750   0.875000 0
  0.156250   0.156250 0
  1.000000   1.000000 0
  0.312500   0.281250 0
  0.656250   0.218750 0
  0.437500   0.156250 0
  0.312500   0.500000 0
  0.437500   0.125000 0
  0.312500   0.468750 0
  0.437500   0.093750 0
  0.781250   0.031250 0
  0.312500   0.437500 0
  0.312500   0.406250 0
  0.312500   0.312500 0
  0.312500   0.343750 0
  0.312500   0.375000 0
  0.375000   0.437500 0
  0.375000   0.406250 0
  0.375000   0.343750 0
  0.718750   0.281250 0
  0.375000   0.375000 0
  0.968750   1.000000 0
  0.281250   0.281250 0
  0.406250   0.156250 0
  0.281250   0.500000 0
  0.406250   0.125000 0
  0.281250   0.468750 0
[...]
CELL_DATA 1024
SCALARS scalar_value float 1
LOOKUP_TABLE default
0
0
0
0
0
0
0
0
0
0
0
0
0
0
0
0
0
0
-1.13197e-10
0
0
0
0
0
0
0
0
0
0
0
5.91104e-10
0
-1.42475e-09
-1.02597e-10
0.000344204
-0.00335139
1.67113e-06
5.53771e-06
-4.09243e-09
-3.63435e-10
0.00123151
0.0710408
-0.00027842
-1.62512e-08
-1.48367e-09
-1.36169e-08
7.5735e-09
-6.45098e-08
2.81657e-08
4.39135e-09
-3.32328e-06
1.97689e-06
2.58585e-07
-0.00409364
1.29735e-07
-0.00013721
9.02372e-07
-1.57499e-05
-6.71496e-09
-0.000156465
5.62013e-08
5.04064e-07
-9.6514e-06
-0.00208016
0
0
0
0
0
0
0
0
0
0
0
0
-2.61557e-10
-3.85634e-10
-2.16976e-09
0
0
0
0
0
0
5.45967e-10
3.72937e-09
-2.27737e-09
0
0
0
0
0
2.73314e-10
1.96038e-09
0
8.64602e-07
6.28209e-06
-8.75912e-09
2.27394e-08
-1.75277e-05
-0.000347214
0.00359603
4.46084e-07
3.10845e-06
-3.6002e-08
-1.65417e-08
-7.67269e-05
-1.19721e-05
0.000819398
0.00657469
3.52655e-05
0.39798
-2.79466e-06
2.96143e-05
3.11362e-08
1.17622e-08
-4.8533e-07
-4.74932e-06
0.000460912
0.0759184
0.00139927
5.77139e-06
-2.38165e-07
-1.34326e-05
1.45642e-07
2.5934e-08
0.0629897
-3.32935e-10
0
0
0
0
0
0
0
0
0
0
0
0
0
0
0
0
0
0
0
0
0
0
0
0
0
0
0
0
0
0
-2.64837e-10
-2.59603e-09
-4.21427e-09
0
-2.49042e-05
-4.89447e-05
-1.96653e-06
4.72914e-07
1.19308e-07
-4.19551e-09
-4.2041e-09
1.39004e-05
7.90047e-05
-5.96721e-07
-4.14288e-06
1.41776e-07
3.64106e-08
3.01199e-09
-1.00145e-09
-1.96174e-06
1.61327e-07
6.47437e-08
-1.7929e-05
0.0013738
0.000148121
-1.96274e-08
-3.87456e-09
9.22267e-07
6.40809e-08
-3.52927e-07
-3.2917e-05
1.16153e-05
0.0019951
0
0
0
0
0
0
0
0
0
0
0
0
0
0
0
0
1.64662e-10
0
0
0
0
0
0
0
0
0
0
0
0
0
0
0
1.09946e-08
2.90795e-08
-4.35624e-10
6.3448e-10
-1.69011e-07
-1.0959e-08
6.04838e-08
-3.73382e-09
2.01518e-10
3.13455e-07
5.40773e-07
-2.19332e-06
-8.68754e-06
4.03799e-05
7.52934e-09
-1.68243e-09
-4.00451e-10
-1.98296e-05
-0.000105677
5.32567e-10
-4.89752e-10
1.05324e-08
3.45019e-08
6.09343e-08
-2.03339e-06
1.40705e-08
-1.32432e-05
2.31678e-05
-9.82985e-06
3.95232e-05
-1.35188e-07
-2.17515e-06
2.10284
1.03192
3.03888
2.8426
2.61277
2.45476
-0.00032873
-0.000987605
1.04915
0.649003
0.000125428
-0.0004631
0.0381644
0.340192
0.899781
1.10647
0.697516
0.57616
-0.000781594
-0.00349027
3.10268
2.80918
0.00455553
0.000872691
0.0130502
-0.0011381
0.0205576
0.024964
5.96786e-05
0.00123605
0.000817861
0.00140813
4.62511e-07
6.69994e-06
1.65422e-07
6.58502e-08
0.996257
2.05804
-0.000250879
-1.44818e-05
0.00164151
-0.000136987
-0.0070991
0.194818
0.225034
0.0195262
-1.84777e-05
0.000227297
0.000163352
0.000358741
0.00357922
1.66159e-05
0.000113416
1.63511e-05
1.17357e-05
-0.000781312
0.00156654
4.11421e-05
-2.94956e-06
7.6831e-06
8.67716e-06
1.58105e-06
-0.000227416
2.80271e-05
4.03979
4.51198
1.27007
3.03238
4.63745
4.64632
4.64644
4.6379
2.38238
3.69442
0.818762
0.188907
4.63619
4.41066
4.64609
4.6452
4.18435
2.64907
1.00384
3.77394
4.34248
4.57714
4.60565
4.50198
4.53718
3.57246
3.87277
2.85315
1.70933
4.18607
3.97342
4.06725
4.42285
3.87113
4.50657
3.70555
2.30963
0.500849
-0.00504115
-0.00226518
0.000345129
0.000145465
2.60673
0.77061
-0.00150293
0.0066889
0.000633906
0.000121911
3.77225
4.44119
2.42135
0.56669
0.000644902
-1.9263e-05
-0.00444992
-0.00241468
1.64786
0.230322
3.03238
3.82373
0.000156982
-0.000650918
0.000926255
-0.000919007
0.724193
0.00238309
4.64679
4.64555
4.57897
4.13179
0.00597126
4.64676
4.64554
4.12271
4.576
3.10133
0.000373585
0.120262
1.38748
0.0771677
0.00154709
3.09944
1.34349
0.554655
2.38069
3.74383
4.43588
4.639
4.64503
4.64582
3.80368
2.53851
4.64597
4.44956
4.6385
4.64564
4.38077
4.63411
-0.00107976
-0.000967798
0.000324242
1.78345
3.52818
4.38399
4.63817
-0.00036694
-0.000572239
0.00130411
3.46003
4.64636
4.55603
0.328573
2.47565
3.98501
4.55457
4.64633
0.425275
2.5981
4.00177
-0.000399556
0.000746409
0.133928
0.00208492
-0.000215339
0.000757566
1.55632
0.0656632
0.000903871
1.14067
2.91862
0.00132288
0.0401747
4.01766
4.54199
1.32411
3.06755
0.0753456
0.00148097
4.57808
4.11953
4.64684
4.54495
4.64625
4.64553
4.64625
4.64556
4.54449
4.02978
0.039424
0.00135925
1.13805
2.92919
4.64554
4.03293
1.14153
2.93719
4.64626
0.040821
0.00140719
4.64556
3.93145
2.23044
4.64631
4.56299
0.190994
0.00250361
-0.00024372
0.000785621
-0.00173928
0.52079
4.03282
2.70696
4.55567
4.64623
3.78869
2.03396
4.50214
4.64525
0.00235091
0.155326
0.000946137
-0.000285145
-0.00208477
-0.00110154
0.00198351
0.26588
4.56883
4.6462
3.94522
2.30813
0.000389233
-0.000641461
1.36494e-09
1.55429e-10
0
0
0
0
0
0
0
1.43007e-10
0
0
0
0
0
0
0
1.80121e-10
0
1.16482e-09
0
0
0
0
0
0
1.4101e-09
0
0
0
0
0
0.0019399
-1.32797e-05
-8.54468e-05
-3.09421e-08
1.16861e-09
3.66114e-05
-0.00102398
-3.56004e-05
-1.02881e-06
1.1389e-06
-7.66243e-08
2.72194e-10
-3.93728e-08
3.40857e-05
0.00143677
1.73027e-06
-3.93369e-05
1.16384e-06
-8.2132e-08
-1.07844e-05
1.06883e-06
-1.51793e-07
3.75212e-06
-3.96151e-05
1.68031e-09
-3.56395e-08
3.41085e-07
6.70886e-08
-4.99372e-09
3.18155e-07
2.69934e-10
-4.06087e-09
0
0
0
0
0
-2.0618e-10
-1.72801e-09
-4.18027e-09
5.80868e-08
0
0
0
-1.47468e-09
-1.6335e-10
1.72874e-09
7.95699e-08
0
0
0
0
-1.11398e-10
1.39397e-08
0
-2.78965e-10
0
0
0
0
6.50635e-09
-1.28624e-09
0
-3.58695e-10
6.3456e-07
-9.62612e-07
-2.83334e-06
2.30843e-07
-1.51141e-05
-3.20852e-05
5.35178e-05
0.00289553
0.0209676
0.921824
3.01293
0.000155203
0.00837275
0.00110142
0.521547
2.46077
7.28285e-08
-2.70079e-07
-5.62506e-06
1.89372e-05
0.282163
1.03285
0.000748179
0.00801726
0.000203349
-2.93516e-06
4.84851e-06
1.76734e-08
7.70999e-08
7.75853e-05
0.00581485
-0.000351714
0
0
-3.8663e-09
-5.24172e-08
0
-1.15258e-10
0
0
1.39692e-09
-1.30181e-09
3.87733e-10
0
0
0
0
0
0
0
0
0
0
1.35149e-08
0
1.4731e-08
0
1.67435e-09
0
3.75823e-09
0
0
0
2.08141e-08
-7.72096e-07
-3.99114e-08
0.00660334
0.000949199
-2.96903e-06
-9.57919e-06
-7.20765e-07
-9.13954e-08
1.30802
3.00375
0.000233995
1.1912e-05
-1.82083e-07
4.2901e-06
0.00567572
0.116426
-0.000133187
2.2175e-05
-3.463e-06
-9.68309e-07
0.424402
1.51653
0.000877941
9.22866e-05
0.0145848
3.66139
2.18739
0.418448
2.4518
0.846376
0.00467327
0.0979314
0
0
0
0
0
0
0
0
0
0
0
0
0
0
0
-4.35796e-10
-8.96393e-10
0
0
0
0
0
0
0
-6.03059e-10
0
0
0
0
0
0
0
4.32497e-08
-5.38232e-07
3.34686e-10
1.00287e-08
-5.08275e-06
8.86353e-07
-0.00033087
0.00353358
1.31182e-08
-2.04058e-07
3.91091e-09
2.92818e-10
6.19116e-06
-1.55235e-06
-3.61722e-05
0.00162402
-0.00621996
1.89823e-08
-1.43394e-09
1.28876e-07
-1.17408e-06
-0.0016697
0.00344334
-1.75804e-05
-6.71166e-05
-6.43322e-07
-9.22441e-07
7.64169e-08
2.54406e-08
-0.00543636
-3.62073e-05
-0.000757654
0.0389081
0.641247
4.64638
4.64633
4.62787
4.35238
3.61922
2.31647
0.0035954
0.65792
4.64613
4.64643
4.42426
4.63767
3.73416
2.43815
0.0771446
0.00131506
4.09272
3.04235
1.29956
4.56848
4.64559
4.64683
0.720736
0.00474674
3.75278
2.4821
4.42655
4.63412
4.6457
4.64531
4.59862
4.20208
-8.26205e-05
0.000302088
-0.00256587
-0.0044939
4.64641
0.422651
0.000710609
0.000326939
0.00145266
-0.00239389
0.80865
2.95273
3.87055
4.56321
2.29119
4.48007
4.64513
0.0868735
1.78867
3.68351
0.00134867
-1.58737e-06
0.00118026
4.47725
1.50298
3.587
0.0355632
-0.000609721
0.00107342
0.000165378
4.59388
4.63395
4.16057
4.53074
4.64399
4.64378
4.4941
3.87315
4.64526
4.64576
4.64562
4.61362
4.36239
2.35594
0.660612
4.64549
4.59977
4.3047
2.38982
1.57482
3.5467
3.67969
4.39591
4.64531
4.61432
4.64511
4.5992
4.40184
4.6349
4.35172
4.64156
4.64534
0.614095
-0.0142219
3.69692
2.42214
-0.000866122
0.295531
-0.0103386
1.96046
3.52624
0.0020834
-0.000700839
0.00209866
-6.5718e-05
0.000163228
1.36974
0.122268
3.12173
4.22179
-0.000766687
0.00104014
-0.000440013
0.000316788
-0.000350379
0.000161063
2.22288
3.54971
0.565237
-0.00735926
0.000617578
-0.000431943
0.000241313
0.0019527
4.22377
4.57167
4.51965
4.01035
3.32843
2.62623
4.27552
4.25763
4.08313
3.90184
3.76585
3.62761
3.9736
4.38659
4.60732
4.56692
4.60552
4.52946
4.49225
4.6464
4.64865
4.64658
4.64521
4.34705
4.60975
4.39849
4.64542
4.64627
4.63493
4.6425
3.70871
4.40093
0.000260751
3.40463
3.89839
-0.000875211
-0.000546538
0.0013623
0.07353
1.17131
2.61538
3.8599
2.9423
0.000630696
-6.60039e-05
0.0136559
0.000396084
0.332393
1.47944
1.66556
3.0476
0.00264987
-0.0142763
0.360509
0.00133423
-0.000542076
2.33898
3.4973
-0.003719
0.73752
0.00193482
0.000934292
-0.000301908
0.000238763
0.00335369
-0.00061152
0.000627029
-0.00155483
0.0028282
0.00685746
0.0120774
0.0182181
0.0139705
-0.00478564
-0.000151639
0.0001469
0.00050113
0.0004072
0.000459153
4.62788e-05
0.433072
0.0629471
0.756553
0.816923
0.861666
0.486783
0.865674
0.936057
2.39142
2.59847
1.90631
0.567767
2.32284
2.76224
2.84357
2.91905
-0.000166188
-0.00549538
-0.00131934
-0.000193364
6.29296e-05
-0.000264894
-0.000286879
0.000621831
6.53437e-06
3.62101e-05
-4.76986e-06
8.33516e-07
1.48328
2.57858e-06
-5.33638e-06
1.17944e-07
-7.21194e-09
-0.00209146
0.0973421
0.397553
0.0889877
0.759114
-0.00126225
-0.00108426
8.01888e-05
-0.000495416
0.0190475
0.00805069
0.000175099
-8.74905e-06
8.32197e-05
0.000224017
