# vtk DataFile Version 2.0
Unstructured Grid by M++
ASCII
DATASET UNSTRUCTURED_GRID
POINTS 1089 float
  0.968750   0.906250 0
  0.968750   0.937500 0
  1.000000   0.906250 0
  1.000000   0.937500 0
  1.000000   0.968750 0
  0.906250   0.906250 0
  0.906250   0.875000 0
  0.906250   0.812500 0
  0.906250   0.843750 0
  0.937500   0.906250 0
  0.937500   0.937500 0
  0.937500   0.843750 0
  0.937500   0.875000 0
  0.968750   0.875000 0
  0.968750   0.656250 0
  0.968750   0.687500 0
  1.000000   0.656250 0
  1.000000   0.625000 0
  1.000000   0.687500 0
  0.906250   0.656250 0
  0.906250   0.687500 0
  0.906250   0.625000 0
  0.906250   0.531250 0
  0.906250   0.562500 0
  0.906250   0.593750 0
  0.937500   0.656250 0
  0.937500   0.687500 0
  0.937500   0.531250 0
  0.937500   0.562500 0
  0.937500   0.593750 0
  0.937500   0.625000 0
  0.968750   0.625000 0
  0.968750   0.593750 0
  1.000000   0.593750 0
  0.968750   0.562500 0
  1.000000   0.562500 0
  1.000000   0.531250 0
  0.968750   0.531250 0
  0.781250   1.000000 0
  0.812500   0.781250 0
  0.812500   0.812500 0
  0.875000   0.843750 0
  0.875000   0.812500 0
  0.875000   0.875000 0
  0.781250   0.781250 0
  0.843750   0.843750 0
  0.843750   0.812500 0
  0.875000   0.781250 0
  0.843750   0.781250 0
  0.781250   0.750000 0
  0.781250   0.718750 0
  0.781250   0.687500 0
  0.812500   0.750000 0
  0.812500   0.718750 0
  0.812500   0.531250 0
  0.812500   0.687500 0
  0.812500   0.656250 0
  0.812500   0.562500 0
  0.812500   0.593750 0
  0.812500   0.625000 0
  0.875000   0.687500 0
  0.875000   0.656250 0
  0.875000   0.593750 0
  0.875000   0.562500 0
  0.875000   0.625000 0
  0.781250   0.531250 0
  0.781250   0.562500 0
  0.781250   0.625000 0
  0.781250   0.593750 0
  0.781250   0.656250 0
  0.843750   0.656250 0
  0.843750   0.593750 0
  0.843750   0.562500 0
  0.843750   0.625000 0
  0.843750   0.687500 0
  0.843750   0.750000 0
  0.875000   0.531250 0
  0.843750   0.531250 0
  0.656250   0.906250 0
  0.656250   0.937500 0
  0.656250   1.000000 0
  0.656250   0.968750 0
  0.687500   1.000000 0
  0.687500   0.968750 0
  0.687500   0.937500 0
  0.718750   0.937500 0
  0.718750   0.968750 0
  0.718750   1.000000 0
  0.656250   0.781250 0
  0.656250   0.812500 0
  0.656250   0.843750 0
  0.656250   0.875000 0
  0.750000   0.968750 0
  0.750000   1.000000 0
  0.750000   0.656250 0
  0.750000   0.625000 0
  0.687500   0.656250 0
  0.687500   0.687500 0
  0.687500   0.625000 0
  0.718750   0.656250 0
  0.718750   0.687500 0
  0.718750   0.718750 0
  0.656250   0.531250 0
  0.656250   0.562500 0
  0.656250   0.656250 0
  0.656250   0.687500 0
  0.656250   0.750000 0
  0.656250   0.718750 0
  0.656250   0.625000 0
  0.656250   0.593750 0
  0.750000   0.687500 0
  0.750000   0.718750 0
  0.750000   0.750000 0
  0.687500   0.531250 0
  0.687500   0.562500 0
  0.687500   0.593750 0
  0.718750   0.625000 0
  0.750000   0.531250 0
  0.718750   0.531250 0
  0.750000   0.562500 0
  0.718750   0.562500 0
  0.718750   0.593750 0
  0.750000   0.593750 0
  0.562500   1.000000 0
  0.562500   0.968750 0
  0.562500   0.937500 0
  0.562500   0.906250 0
  0.562500   0.812500 0
  0.562500   0.843750 0
  0.562500   0.875000 0
  0.625000   0.937500 0
  0.625000   0.906250 0
  0.562500   0.781250 0
  0.625000   0.875000 0
  0.531250   1.000000 0
  0.531250   0.968750 0
  0.531250   0.937500 0
  0.531250   0.812500 0
  0.531250   0.875000 0
  0.531250   0.843750 0
  0.531250   0.906250 0
  0.593750   0.906250 0
  0.593750   0.843750 0
  0.593750   0.875000 0
  0.593750   0.812500 0
  0.625000   0.843750 0
  0.625000   0.812500 0
  0.593750   0.937500 0
  0.625000   1.000000 0
  0.593750   1.000000 0
  0.593750   0.968750 0
  0.625000   0.968750 0
  0.625000   0.781250 0
  0.593750   0.781250 0
  0.562500   0.531250 0
  0.562500   0.750000 0
  0.562500   0.718750 0
  0.562500   0.687500 0
  0.562500   0.656250 0
  0.562500   0.562500 0
  0.562500   0.593750 0
  0.562500   0.625000 0
  0.625000   0.687500 0
  0.625000   0.656250 0
  0.625000   0.593750 0
  0.625000   0.562500 0
  0.625000   0.625000 0
  0.531250   0.531250 0
  0.531250   0.750000 0
  0.531250   0.718750 0
  0.531250   0.687500 0
  0.531250   0.562500 0
  0.531250   0.625000 0
  0.531250   0.593750 0
  0.531250   0.656250 0
  0.593750   0.656250 0
  0.593750   0.593750 0
  0.593750   0.562500 0
  0.593750   0.625000 0
  0.593750   0.687500 0
  0.625000   0.750000 0
  0.593750   0.750000 0
  0.593750   0.718750 0
  0.625000   0.718750 0
  0.625000   0.531250 0
  0.593750   0.531250 0
  0.968750   0.406250 0
  0.968750   0.437500 0
  0.968750   0.468750 0
  0.968750   0.500000 0
  1.000000   0.406250 0
  1.000000   0.375000 0
  1.000000   0.437500 0
  1.000000   0.468750 0
  1.000000   0.500000 0
  0.906250   0.500000 0
  0.906250   0.406250 0
  0.906250   0.437500 0
  0.906250   0.281250 0
  0.906250   0.312500 0
  0.906250   0.343750 0
  0.906250   0.375000 0
  0.937500   0.406250 0
  0.937500   0.500000 0
  0.937500   0.468750 0
  0.937500   0.437500 0
  0.937500   0.281250 0
  0.937500   0.312500 0
  0.937500   0.343750 0
  0.937500   0.375000 0
  0.968750   0.375000 0
  1.000000   0.281250 0
  0.968750   0.281250 0
  1.000000   0.312500 0
  0.968750   0.312500 0
  0.968750   0.343750 0
  1.000000   0.343750 0
  0.968750   0.125000 0
  0.968750   0.156250 0
  0.968750   0.187500 0
  1.000000   0.000000 0
  1.000000   0.156250 0
  1.000000   0.125000 0
  1.000000   0.187500 0
  1.000000   0.218750 0
  0.531250   0.781250 0
  1.000000   0.250000 0
  0.906250   0.250000 0
  0.906250   0.218750 0
  0.937500   0.250000 0
  0.937500   0.218750 0
  0.968750   0.250000 0
  0.906250   0.031250 0
  0.906250   0.000000 0
  0.906250   0.062500 0
  0.906250   0.093750 0
  0.906250   0.125000 0
  0.937500   0.156250 0
  0.937500   0.031250 0
  0.937500   0.000000 0
  0.937500   0.062500 0
  0.937500   0.093750 0
  0.937500   0.125000 0
  1.000000   0.031250 0
  0.968750   0.031250 0
  0.968750   0.000000 0
  1.000000   0.062500 0
  0.968750   0.062500 0
  0.968750   0.093750 0
  1.000000   0.093750 0
  0.781250   0.312500 0
  0.781250   0.343750 0
  0.812500   0.500000 0
  0.812500   0.468750 0
  0.812500   0.437500 0
  0.812500   0.281250 0
  0.812500   0.312500 0
  0.812500   0.343750 0
  0.812500   0.375000 0
  0.875000   0.281250 0
  0.875000   0.406250 0
  0.875000   0.343750 0
  0.875000   0.312500 0
  0.875000   0.375000 0
  0.843750   0.281250 0
  0.843750   0.312500 0
  0.843750   0.375000 0
  0.843750   0.343750 0
  0.781250   0.500000 0
  0.781250   0.468750 0
  0.781250   0.437500 0
  0.781250   0.406250 0
  0.875000   0.500000 0
  0.843750   0.500000 0
  0.843750   0.468750 0
  0.875000   0.468750 0
  0.781250   0.281250 0
  0.843750   0.218750 0
  0.843750   0.250000 0
  0.843750   0.187500 0
  0.843750   0.156250 0
  0.875000   0.218750 0
  0.875000   0.250000 0
  0.875000   0.187500 0
  0.812500   0.062500 0
  0.812500   0.250000 0
  0.812500   0.218750 0
  0.812500   0.187500 0
  0.812500   0.156250 0
  0.812500   0.125000 0
  0.843750   0.093750 0
  0.843750   0.062500 0
  0.875000   0.125000 0
  0.875000   0.093750 0
  0.875000   0.062500 0
  0.781250   0.250000 0
  0.781250   0.218750 0
  0.781250   0.187500 0
  0.093750   0.937500 0
  0.125000   1.000000 0
  0.937500   0.718750 0
  0.250000   0.000000 0
  0.093750   0.968750 0
  0.125000   0.968750 0
  0.000000   0.718750 0
  0.000000   0.750000 0
  0.125000   0.531250 0
  0.125000   0.562500 0
  0.093750   0.531250 0
  0.031250   0.750000 0
  0.125000   0.468750 0
  0.156250   0.468750 0
  0.500000   0.375000 0
  0.156250   0.500000 0
  0.406250   0.406250 0
  0.406250   0.437500 0
  0.406250   0.500000 0
  0.406250   0.468750 0
  0.406250   0.375000 0
  0.750000   0.312500 0
  0.437500   0.406250 0
  0.437500   0.500000 0
  0.437500   0.468750 0
  0.437500   0.437500 0
  0.468750   0.437500 0
  0.468750   0.468750 0
  0.406250   0.281250 0
  0.406250   0.312500 0
  0.062500   0.375000 0
  0.406250   0.343750 0
  0.062500   0.406250 0
  0.500000   0.468750 0
  0.500000   0.500000 0
  0.437500   0.281250 0
  0.437500   0.312500 0
  0.437500   0.343750 0
  0.093750   0.406250 0
  0.437500   0.375000 0
  0.093750   0.437500 0
  0.468750   0.375000 0
  0.125000   0.437500 0
  0.500000   0.281250 0
  0.468750   0.281250 0
  0.500000   0.312500 0
  0.468750   0.312500 0
  0.468750   0.343750 0
  0.500000   0.343750 0
  0.843750   0.906250 0
  0.156250   0.187500 0
  0.468750   0.187500 0
  0.468750   0.218750 0
  0.468750   0.250000 0
  0.406250   0.031250 0
  0.750000   0.812500 0
  0.062500   0.093750 0
  0.406250   0.000000 0
  0.750000   0.781250 0
  0.062500   0.062500 0
  0.500000   0.187500 0
  0.500000   0.218750 0
  0.500000   0.250000 0
  0.437500   0.031250 0
  0.781250   0.812500 0
  0.093750   0.093750 0
  0.437500   0.000000 0
  0.437500   0.062500 0
  0.781250   0.843750 0
  0.093750   0.125000 0
  0.406250   0.187500 0
  0.406250   0.250000 0
  0.406250   0.218750 0
  0.437500   0.250000 0
  0.437500   0.218750 0
  0.437500   0.187500 0
  0.500000   0.000000 0
  0.500000   0.031250 0
  0.468750   0.031250 0
  0.468750   0.000000 0
  0.500000   0.062500 0
  0.468750   0.062500 0
  0.812500   0.843750 0
  0.125000   0.125000 0
  0.812500   0.875000 0
  0.125000   0.156250 0
  0.500000   0.093750 0
  0.843750   0.875000 0
  0.156250   0.156250 0
  1.000000   1.000000 0
  0.312500   0.281250 0
  0.656250   0.218750 0
  0.437500   0.156250 0
  0.312500   0.500000 0
  0.437500   0.125000 0
  0.312500   0.468750 0
  0.437500   0.093750 0
  0.781250   0.031250 0
  0.312500   0.437500 0
  0.312500   0.406250 0
  0.312500   0.312500 0
  0.312500   0.343750 0
  0.312500   0.375000 0
  0.375000   0.437500 0
  0.375000   0.406250 0
  0.375000   0.343750 0
  0.718750   0.281250 0
  0.375000   0.375000 0
  0.968750   1.000000 0
  0.281250   0.281250 0
  0.406250   0.156250 0
  0.281250   0.500000 0
  0.406250   0.125000 0
  0.281250   0.468750 0
[...]
CELL_DATA 1024
SCALARS scalar_value float 1
LOOKUP_TABLE default
5.27858e-08
6.45363e-09
-3.4356e-06
-8.272e-08
-1.26439e-10
-1.33637e-10
0
1.05001e-07
1.04826e-08
-2.87051e-08
-5.91595e-06
-2.80195e-10
-5.47023e-10
0
0
0
-1.25592e-09
1.50869e-07
-5.6749e-06
7.90301e-08
-2.71979e-09
5.43996e-10
1.01526e-10
0
0
0
1.39106e-09
-1.22212e-07
-5.52932e-09
-8.95821e-07
-1.69064e-06
0
0.000122546
-2.30656e-06
0.247518
0.46526
-0.00707095
0.073487
4.92572e-05
1.19162e-06
1.41975
2.02705
0.810211
-0.00674151
-1.36363e-05
2.57507e-05
-0.0522922
-0.0179214
2.97035e-06
3.08199e-05
0.260479
0.0126819
-0.000578816
-0.00274191
-0.0136498
-0.00297364
0.000824563
-8.28627e-05
-0.00916205
-0.00376648
-0.01856
-0.00632508
-0.00528592
-0.000650124
-2.93403e-10
-2.36856e-09
0
0
-1.8998e-08
-1.42792e-07
0
1.35597e-10
0
0
-4.93238e-09
-3.42234e-10
-2.33498e-08
-8.53358e-07
-2.36816e-06
1.09918e-09
4.12713e-09
2.08094e-10
0
-3.18085e-07
-7.41936e-09
-2.64252e-06
-1.13605e-05
2.93197e-07
2.00432e-10
0
1.00214e-09
3.47749e-09
-6.33576e-09
-3.81513e-06
-3.01047e-05
-3.31511e-07
0.00239787
0.308361
7.33135e-05
0.000734575
1.02596
2.12323
3.30366
0.000291566
-0.00388502
1.05656e-05
-1.89637e-06
0.914488
0.043352
2.71197
3.88282
3.03866
3.43121
3.11396
2.63253
0.00361697
-6.57097e-05
0.0373195
1.17449
3.63786
3.97006
2.45478
1.49007
-0.0260908
0.27716
0.000907841
5.28058e-06
4.14744
-1.59548e-06
0
0
-1.39069e-08
1.05762e-07
-2.29365e-09
6.97197e-10
0
0
0
0
7.2045e-10
9.84799e-08
0
-2.41026e-09
0
0
0
0
3.98057e-09
8.55742e-10
1.27224e-10
-2.55883e-09
-2.80907e-07
0
0
0
0
4.87779e-10
-3.72189e-09
-7.07195e-08
-1.62686e-07
-4.80047e-07
1.31868e-06
-3.38354e-07
2.82518e-07
0.00265122
-3.56485e-05
-9.1984e-06
6.79788e-06
-2.04353e-06
-7.33919e-07
-0.0013342
0.0521291
0.000168685
-0.000182297
-4.87468e-05
1.04908e-05
-1.4092e-05
1.38836e-05
0.00246196
0.00185028
-0.000166937
0.0398346
0.656742
0.458668
-9.89102e-06
2.66507e-06
-9.4507e-06
3.28274e-05
0.0002479
0.00405582
-0.00196569
0.190235
0
0
0
0
0
0
0
0
1.46889e-10
-4.09772e-10
1.21885e-09
-5.12258e-09
0
1.21318e-10
0
-1.7724e-09
7.66773e-09
0
0
0
0
0
-8.41969e-10
0
4.04744e-09
2.79653e-09
0
0
-1.16534e-10
1.54065e-10
0
0
-2.43963e-08
7.86931e-07
1.34915e-08
-4.91133e-08
-1.38868e-06
-8.79717e-07
4.72982e-06
-1.01281e-08
-3.39217e-08
-2.62085e-05
1.23295e-05
6.06219e-06
5.33645e-05
-0.000291189
-1.52783e-07
-5.90445e-08
-2.63956e-08
-4.92322e-05
0.00130899
-3.25636e-08
2.68857e-10
4.76088e-08
2.15424e-07
7.09775e-07
-2.59533e-05
-6.68929e-08
0.000159574
0.000115629
6.77647e-05
-0.000302553
-2.2726e-06
4.66766e-06
2.4885
2.43198
0.696166
1.31365
1.79168
2.21365
0.0013497
0.00145924
0.00594075
0.0003011
0.00114012
0.00136425
0.517632
0.338758
0.000573307
-0.00513348
0.0280841
0.150199
0.000968192
0.00242677
0.23579
0.0226401
0.00623302
0.00465341
0.000777362
0.000196885
7.48243e-05
-0.000876818
2.75135e-05
-3.16134e-05
0.000349587
-5.26758e-05
-8.21319e-08
-1.09117e-07
-1.55759e-07
3.04729e-08
0.000455719
-0.00115234
-4.23195e-05
-9.73149e-07
0.000298437
-0.000268212
0.000418989
-0.000376409
0.00141922
-0.000266655
4.31372e-05
0.00017664
-9.83006e-05
-0.000157364
0.000501091
3.16783e-05
-9.83904e-06
1.7458e-06
4.15733e-06
-2.74812e-05
4.68432e-05
-3.59966e-06
-8.83977e-07
-5.6376e-07
-3.86275e-06
4.5025e-07
-1.43732e-05
7.74986e-06
4.65415
4.64722
4.56583
4.65283
4.61316
4.32883
3.55447
2.13332
4.01607
4.50128
3.55935
3.81047
4.64889
4.64535
4.60575
4.12751
0.995855
4.45611
4.26976
4.5477
4.60694
3.64843
2.20695
4.61892
4.38106
4.19005
4.201
4.03984
3.76196
2.39427
3.99051
3.39323
0.409413
0.455525
2.45567
-0.00370747
-0.003481
0.00145454
-6.00543e-06
-0.000487821
9.40927e-05
2.19553e-05
0.0018273
-0.00217962
0.00025394
-0.000635584
0.000219864
-0.000156279
-0.00952569
0.401583
-0.00376472
0.000683454
-4.34772e-05
2.68822e-05
0.000481956
-0.000357733
-0.00256441
-0.000216271
0.00225793
0.0779973
3.54582e-05
-0.000117145
0.000641418
-0.000272269
3.26899
1.65531
4.64616
4.64702
4.64288
4.45148
1.04181
4.6458
4.64739
4.43138
4.64054
3.78004
0.586565
1.33165
2.66359
0.482093
-0.0065629
3.7226
2.28896
2.77293
4.02153
4.55797
4.64581
4.64617
4.54396
4.64067
4.59119
4.20954
4.64445
4.6445
4.64543
4.55176
2.6374
4.04525
0.00102047
0.00062542
0.00241438
8.59814e-05
0.491126
1.82282
3.83744
0.000932151
0.000508583
0.00123737
0.070515
4.58243
3.94644
-0.00113852
0.0181486
1.82997
3.94996
4.56894
0.00303099
0.0579639
2.02584
0.000278067
-0.000195907
-0.0021967
-0.000754055
-0.000188361
-0.000384507
0.00103781
0.00116433
-3.30461e-05
1.81055
3.35291
-0.000350138
0.235359
4.24988
4.61533
2.21787
3.63116
0.501257
-0.000334246
4.63829
4.4118
4.6468
4.61976
4.64694
4.64703
4.64689
4.64613
4.61834
4.2746
0.229931
-0.000693843
1.80954
3.37994
4.6473
4.28975
1.90057
3.43733
4.64704
0.286765
-0.00378548
4.64662
1.25473
-0.015283
4.60876
3.89951
-0.00688147
-0.00119449
0.000201381
-0.000762465
0.0031775
0.00611756
2.29808
0.143077
3.98304
4.56593
0.891756
-0.00628228
3.50448
4.48255
-0.00155025
-0.005347
-0.000406234
1.98364e-05
0.00097846
0.000605182
0.000619355
-0.00207186
3.98243
4.61459
1.61013
0.0121044
-8.49617e-05
0.000316704
-2.26935e-07
1.09216e-07
-1.67283e-06
3.24609e-10
0
-1.65686e-07
9.87993e-08
-1.32244e-09
-2.12297e-09
-2.51159e-07
1.80436e-10
-5.09774e-10
1.43478e-08
3.02263e-09
-4.63108e-09
1.48165e-09
-1.82812e-08
5.28224e-08
3.91628e-09
-4.81703e-07
-5.87093e-10
-1.71581e-10
6.8975e-09
-3.14034e-08
0
0
8.05569e-07
-3.89563e-10
0
0
0
0
0.347291
-0.000184474
0.0017757
-0.001446
1.55851e-05
1.15549
1.45255
0.508593
0.0473872
-0.0303531
-0.0110494
-5.18933e-06
-0.000145017
-0.0253991
0.198649
0.00105832
-0.00191231
-0.00141325
-0.00131561
-0.0111709
0.000312275
-0.00017385
-0.000577992
0.00370561
-1.08403e-06
-6.88867e-06
4.60864e-05
3.47124e-05
-8.87826e-06
-5.19643e-05
-1.72164e-07
-9.29476e-07
-1.97438e-08
-2.15443e-06
1.19931e-05
-3.61144e-08
3.79879e-07
-6.03029e-05
0.000149168
0.00155248
0.0152229
3.26168e-06
6.7675e-05
3.42909e-07
0.00687367
0.000872829
0.0346383
0.14046
2.27452e-07
-8.13429e-09
-1.56054e-06
8.37883e-06
0.000154738
0.00878549
-3.04458e-05
0.000134916
7.73088e-08
-2.39279e-07
-1.95007e-08
3.75976e-09
0.000331371
8.59858e-06
1.03042e-06
1.16617e-06
0.228251
1.70049
1.8196
0.568897
3.32024
3.53983
4.41568
4.66901
4.65343
4.63946
4.63009
4.19573
4.64472
4.59556
4.63936
4.64324
0.076518
1.14622
3.29231
4.38532
4.66385
4.5014
4.6836
4.71264
3.82415
0.841861
1.69454
0.139417
0.00625136
2.17652
3.09268
2.54002
1.58049e-06
1.84297e-07
-0.000540959
0.0846403
6.39085e-06
-0.000296954
-7.03965e-07
1.71119e-07
0.00012236
-0.0152495
-4.19122e-05
-1.10317e-06
1.30093e-08
8.06148e-08
3.24311e-07
-8.1957e-08
9.93433e-09
2.20423e-09
-2.56839e-06
-6.17252e-08
-4.85741e-08
1.17531
4.43274e-05
0.095088
-8.67441e-05
0.00599928
-1.21715e-05
0.267658
0.000119019
0.00148076
0.020328
1.47485
0.00448526
-0.0103004
3.10054
2.71415
2.02491
0.67412
4.08392
3.08493
4.3669
4.51589
4.63587
4.51191
1.02891
2.39564
4.00677
4.18834
3.81877
3.40211
3.96668
3.01665
3.44628
3.68379
4.55927
4.43276
4.61076
4.54782
4.64334
4.64507
4.63087
4.64384
4.64201
4.64532
-3.64794e-09
-1.67821e-08
0
-1.36331e-10
-8.61988e-09
-4.85275e-07
-5.24721e-05
-8.50713e-10
-3.11357e-09
0
0
-4.19844e-07
-6.27821e-09
-2.3355e-05
-0.000279376
0.00108046
0.00729218
4.90872e-07
2.52425e-07
-1.45016e-09
1.10539e-10
-1.82909e-08
-4.95678e-08
-0.000172022
-0.00421115
5.96789e-05
1.32381e-06
-1.21853e-07
-5.98028e-07
-8.39131e-09
4.77512e-10
-0.000588155
-0.0118104
0.0140674
-0.00161551
-0.00467204
0.0115605
0.00359542
0.00237704
0.0035329
-0.0097418
0.0248346
-0.00368952
-0.00123858
-0.00318326
0.0133765
-0.00311023
-0.00067195
1.95637
-0.00592462
-0.0065672
-0.00656899
0.0302675
0.253508
0.415619
0.028129
0.125711
0.0533814
0.389672
0.053868
0.00842403
1.6869
1.03926
1.42589
1.90365
2.90411
4.64337
4.26302
4.64335
4.63944
4.4423
3.83693
1.54758
3.08622
4.64795
4.56047
4.64379
4.64413
4.55968
4.07979
0.478798
0.0138925
4.39647
3.60275
2.16278
4.63919
4.64642
4.64796
3.05494
1.74191
4.42348
3.93045
4.61167
4.64439
4.64349
4.63826
3.68267
1.40949
0.000380527
3.25335e-05
-0.000635169
-0.00178104
4.36234
-0.000688026
0.000564741
-0.000320624
0.00056492
0.000451495
-0.00347733
0.0342872
0.238465
2.5353
-0.000282931
3.07398
4.36637
-0.00204879
0.00148152
0.510237
-0.00105509
-0.000122676
-0.000333099
2.90213
0.00568401
0.302819
0.000564212
-0.000180736
-6.43448e-05
-0.000283564
4.06203
3.61784
4.54846
4.32774
3.64138
2.7015
4.28873
4.58993
1.44665
2.68627
1.23895
0.183031
-0.00300057
4.58539
4.4315
0.307862
-0.0155907
0.00326729
4.60282
4.42586
4.65284
4.59916
4.6431
4.53095
4.64815
3.90942
2.35869
4.65071
1.74699
0.141402
4.50887
3.62316
-0.000896227
0.000358553
0.000959195
0.00121357
0.000228983
0.000739656
-3.05793e-05
0.000285104
-0.00135345
6.70947e-05
0.00017233
-1.92138e-05
4.78474e-05
1.01193e-05
-0.00107088
-0.000461429
0.00156667
0.536861
-2.04122e-05
0.000632332
-0.000137917
6.03801e-05
-6.72894e-06
4.54979e-06
-0.0017186
0.00241278
0.00070603
0.000718197
-0.000470464
1.67478e-05
8.42837e-06
0.000294538
0.00805009
0.0231518
-0.00817228
-0.00340381
4.08277
3.90597
0.960885
0.357939
2.31714
3.38908
3.94424
4.1278
4.47932
4.16792
0.00896372
1.48278
0.373196
2.66805
3.5727
1.52944
2.72809
0.352853
-0.0377123
4.2161
3.6058
0.0473796
1.01106
2.58217
3.67807
0.0302103
4.54846
4.26582
9.10081e-06
0.0295372
0.199189
-0.000515296
-7.30913e-05
-0.00105257
0.000653014
0.000115816
0.00331125
0.0171984
0.00649526
3.83493e-05
5.23539e-06
-0.000182538
-3.56028e-05
0.00168389
-0.00124492
-0.000990238
0.00464159
0.000148297
-0.000117469
0.00138152
2.46023e-05
-1.08672e-05
0.000769277
0.00715975
0.00018172
0.000225098
9.23719e-05
3.3087e-05
-4.47564e-06
-7.88209e-06
0.00651866
-0.000780584
0.000113155
-0.00432354
-0.0163614
-0.00296898
-0.00571103
-0.00513297
-0.0045831
-0.00201572
-0.000931922
0.000132693
-0.000176447
0.000194495
-0.000421117
-0.000381772
0.517492
0.619641
0.117278
-0.0518309
0.00141337
0.00405973
-0.013913
-0.00641176
1.0544
1.06349
1.57598
2.04533
0.333049
0.644652
1.05242
0.88705
-3.29557e-05
6.46704e-05
0.000154744
3.84548e-06
-4.34515e-06
1.22865e-05
-3.49852e-05
4.22312e-06
8.15544e-06
-8.12559e-06
1.00179e-06
-3.40526e-08
0.0813534
-1.17138e-06
1.18511e-06
1.32876e-07
3.7678e-08
0.000526006
0.00388378
0.000593595
-0.000657775
0.00163364
-0.000429935
-0.000645161
-3.70222e-07
1.88825e-05
0.000125614
6.08931e-05
1.50256e-05
3.94641e-06
0.000137662
-4.92985e-06
