# vtk DataFile Version 2.0
Unstructured Grid by M++
ASCII
DATASET UNSTRUCTURED_GRID
POINTS 1089 float
  0.968750   0.906250 0
  0.968750   0.937500 0
  1.000000   0.906250 0
  1.000000   0.937500 0
  1.000000   0.968750 0
  0.906250   0.906250 0
  0.906250   0.875000 0
  0.906250   0.812500 0
  0.906250   0.843750 0
  0.937500   0.906250 0
  0.937500   0.937500 0
  0.937500   0.843750 0
  0.937500   0.875000 0
  0.968750   0.875000 0
  0.968750   0.656250 0
  0.968750   0.687500 0
  1.000000   0.656250 0
  1.000000   0.625000 0
  1.000000   0.687500 0
  0.906250   0.656250 0
  0.906250   0.687500 0
  0.906250   0.625000 0
  0.906250   0.531250 0
  0.906250   0.562500 0
  0.906250   0.593750 0
  0.937500   0.656250 0
  0.937500   0.687500 0
  0.937500   0.531250 0
  0.937500   0.562500 0
  0.937500   0.593750 0
  0.937500   0.625000 0
  0.968750   0.625000 0
  0.968750   0.593750 0
  1.000000   0.593750 0
  0.968750   0.562500 0
  1.000000   0.562500 0
  1.000000   0.531250 0
  0.968750   0.531250 0
  0.781250   1.000000 0
  0.812500   0.781250 0
  0.812500   0.812500 0
  0.875000   0.843750 0
  0.875000   0.812500 0
  0.875000   0.875000 0
  0.781250   0.781250 0
  0.843750   0.843750 0
  0.843750   0.812500 0
  0.875000   0.781250 0
  0.843750   0.781250 0
  0.781250   0.750000 0
  0.781250   0.718750 0
  0.781250   0.687500 0
  0.812500   0.750000 0
  0.812500   0.718750 0
  0.812500   0.531250 0
  0.812500   0.687500 0
  0.812500   0.656250 0
  0.812500   0.562500 0
  0.812500   0.593750 0
  0.812500   0.625000 0
  0.875000   0.687500 0
  0.875000   0.656250 0
  0.875000   0.593750 0
  0.875000   0.562500 0
  0.875000   0.625000 0
  0.781250   0.531250 0
  0.781250   0.562500 0
  0.781250   0.625000 0
  0.781250   0.593750 0
  0.781250   0.656250 0
  0.843750   0.656250 0
  0.843750   0.593750 0
  0.843750   0.562500 0
  0.843750   0.625000 0
  0.843750   0.687500 0
  0.843750   0.750000 0
  0.875000   0.531250 0
  0.843750   0.531250 0
  0.656250   0.906250 0
  0.656250   0.937500 0
  0.656250   1.000000 0
  0.656250   0.968750 0
  0.687500   1.000000 0
  0.687500   0.968750 0
  0.687500   0.937500 0
  0.718750   0.937500 0
  0.718750   0.968750 0
  0.718750   1.000000 0
  0.656250   0.781250 0
  0.656250   0.812500 0
  0.656250   0.843750 0
  0.656250   0.875000 0
  0.750000   0.968750 0
  0.750000   1.000000 0
  0.750000   0.656250 0
  0.750000   0.625000 0
  0.687500   0.656250 0
  0.687500   0.687500 0
  0.687500   0.625000 0
  0.718750   0.656250 0
  0.718750   0.687500 0
  0.718750   0.718750 0
  0.656250   0.531250 0
  0.656250   0.562500 0
  0.656250   0.656250 0
  0.656250   0.687500 0
  0.656250   0.750000 0
  0.656250   0.718750 0
  0.656250   0.625000 0
  0.656250   0.593750 0
  0.750000   0.687500 0
  0.750000   0.718750 0
  0.750000   0.750000 0
  0.687500   0.531250 0
  0.687500   0.562500 0
  0.687500   0.593750 0
  0.718750   0.625000 0
  0.750000   0.531250 0
  0.718750   0.531250 0
  0.750000   0.562500 0
  0.718750   0.562500 0
  0.718750   0.593750 0
  0.750000   0.593750 0
  0.562500   1.000000 0
  0.562500   0.968750 0
  0.562500   0.937500 0
  0.562500   0.906250 0
  0.562500   0.812500 0
  0.562500   0.843750 0
  0.562500   0.875000 0
  0.625000   0.937500 0
  0.625000   0.906250 0
  0.562500   0.781250 0
  0.625000   0.875000 0
  0.531250   1.000000 0
  0.531250   0.968750 0
  0.531250   0.937500 0
  0.531250   0.812500 0
  0.531250   0.875000 0
  0.531250   0.843750 0
  0.531250   0.906250 0
  0.593750   0.906250 0
  0.593750   0.843750 0
  0.593750   0.875000 0
  0.593750   0.812500 0
  0.625000   0.843750 0
  0.625000   0.812500 0
  0.593750   0.937500 0
  0.625000   1.000000 0
  0.593750   1.000000 0
  0.593750   0.968750 0
  0.625000   0.968750 0
  0.625000   0.781250 0
  0.593750   0.781250 0
  0.562500   0.531250 0
  0.562500   0.750000 0
  0.562500   0.718750 0
  0.562500   0.687500 0
  0.562500   0.656250 0
  0.562500   0.562500 0
  0.562500   0.593750 0
  0.562500   0.625000 0
  0.625000   0.687500 0
  0.625000   0.656250 0
  0.625000   0.593750 0
  0.625000   0.562500 0
  0.625000   0.625000 0
  0.531250   0.531250 0
  0.531250   0.750000 0
  0.531250   0.718750 0
  0.531250   0.687500 0
  0.531250   0.562500 0
  0.531250   0.625000 0
  0.531250   0.593750 0
  0.531250   0.656250 0
  0.593750   0.656250 0
  0.593750   0.593750 0
  0.593750   0.562500 0
  0.593750   0.625000 0
  0.593750   0.687500 0
  0.625000   0.750000 0
  0.593750   0.750000 0
  0.593750   0.718750 0
  0.625000   0.718750 0
  0.625000   0.531250 0
  0.593750   0.531250 0
  0.968750   0.406250 0
  0.968750   0.437500 0
  0.968750   0.468750 0
  0.968750   0.500000 0
  1.000000   0.406250 0
  1.000000   0.375000 0
  1.000000   0.437500 0
  1.000000   0.468750 0
  1.000000   0.500000 0
  0.906250   0.500000 0
  0.906250   0.406250 0
  0.906250   0.437500 0
  0.906250   0.281250 0
  0.906250   0.312500 0
  0.906250   0.343750 0
  0.906250   0.375000 0
  0.937500   0.406250 0
  0.937500   0.500000 0
  0.937500   0.468750 0
  0.937500   0.437500 0
  0.937500   0.281250 0
  0.937500   0.312500 0
  0.937500   0.343750 0
  0.937500   0.375000 0
  0.968750   0.375000 0
  1.000000   0.281250 0
  0.968750   0.281250 0
  1.000000   0.312500 0
  0.968750   0.312500 0
  0.968750   0.343750 0
  1.000000   0.343750 0
  0.968750   0.125000 0
  0.968750   0.156250 0
  0.968750   0.187500 0
  1.000000   0.000000 0
  1.000000   0.156250 0
  1.000000   0.125000 0
  1.000000   0.187500 0
  1.000000   0.218750 0
  0.531250   0.781250 0
  1.000000   0.250000 0
  0.906250   0.250000 0
  0.906250   0.218750 0
  0.937500   0.250000 0
  0.937500   0.218750 0
  0.968750   0.250000 0
  0.906250   0.031250 0
  0.906250   0.000000 0
  0.906250   0.062500 0
  0.906250   0.093750 0
  0.906250   0.125000 0
  0.937500   0.156250 0
  0.937500   0.031250 0
  0.937500   0.000000 0
  0.937500   0.062500 0
  0.937500   0.093750 0
  0.937500   0.125000 0
  1.000000   0.031250 0
  0.968750   0.031250 0
  0.968750   0.000000 0
  1.000000   0.062500 0
  0.968750   0.062500 0
  0.968750   0.093750 0
  1.000000   0.093750 0
  0.781250   0.312500 0
  0.781250   0.343750 0
  0.812500   0.500000 0
  0.812500   0.468750 0
  0.812500   0.437500 0
  0.812500   0.281250 0
  0.812500   0.312500 0
  0.812500   0.343750 0
  0.812500   0.375000 0
  0.875000   0.281250 0
  0.875000   0.406250 0
  0.875000   0.343750 0
  0.875000   0.312500 0
  0.875000   0.375000 0
  0.843750   0.281250 0
  0.843750   0.312500 0
  0.843750   0.375000 0
  0.843750   0.343750 0
  0.781250   0.500000 0
  0.781250   0.468750 0
  0.781250   0.437500 0
  0.781250   0.406250 0
  0.875000   0.500000 0
  0.843750   0.500000 0
  0.843750   0.468750 0
  0.875000   0.468750 0
  0.781250   0.281250 0
  0.843750   0.218750 0
  0.843750   0.250000 0
  0.843750   0.187500 0
  0.843750   0.156250 0
  0.875000   0.218750 0
  0.875000   0.250000 0
  0.875000   0.187500 0
  0.812500   0.062500 0
  0.812500   0.250000 0
  0.812500   0.218750 0
  0.812500   0.187500 0
  0.812500   0.156250 0
  0.812500   0.125000 0
  0.843750   0.093750 0
  0.843750   0.062500 0
  0.875000   0.125000 0
  0.875000   0.093750 0
  0.875000   0.062500 0
  0.781250   0.250000 0
  0.781250   0.218750 0
  0.781250   0.187500 0
  0.093750   0.937500 0
  0.125000   1.000000 0
  0.937500   0.718750 0
  0.250000   0.000000 0
  0.093750   0.968750 0
  0.125000   0.968750 0
  0.000000   0.718750 0
  0.000000   0.750000 0
  0.125000   0.531250 0
  0.125000   0.562500 0
  0.093750   0.531250 0
  0.031250   0.750000 0
  0.125000   0.468750 0
  0.156250   0.468750 0
  0.500000   0.375000 0
  0.156250   0.500000 0
  0.406250   0.406250 0
  0.406250   0.437500 0
  0.406250   0.500000 0
  0.406250   0.468750 0
  0.406250   0.375000 0
  0.750000   0.312500 0
  0.437500   0.406250 0
  0.437500   0.500000 0
  0.437500   0.468750 0
  0.437500   0.437500 0
  0.468750   0.437500 0
  0.468750   0.468750 0
  0.406250   0.281250 0
  0.406250   0.312500 0
  0.062500   0.375000 0
  0.406250   0.343750 0
  0.062500   0.406250 0
  0.500000   0.468750 0
  0.500000   0.500000 0
  0.437500   0.281250 0
  0.437500   0.312500 0
  0.437500   0.343750 0
  0.093750   0.406250 0
  0.437500   0.375000 0
  0.093750   0.437500 0
  0.468750   0.375000 0
  0.125000   0.437500 0
  0.500000   0.281250 0
  0.468750   0.281250 0
  0.500000   0.312500 0
  0.468750   0.312500 0
  0.468750   0.343750 0
  0.500000   0.343750 0
  0.843750   0.906250 0
  0.156250   0.187500 0
  0.468750   0.187500 0
  0.468750   0.218750 0
  0.468750   0.250000 0
  0.406250   0.031250 0
  0.750000   0.812500 0
  0.062500   0.093750 0
  0.406250   0.000000 0
  0.750000   0.781250 0
  0.062500   0.062500 0
  0.500000   0.187500 0
  0.500000   0.218750 0
  0.500000   0.250000 0
  0.437500   0.031250 0
  0.781250   0.812500 0
  0.093750   0.093750 0
  0.437500   0.000000 0
  0.437500   0.062500 0
  0.781250   0.843750 0
  0.093750   0.125000 0
  0.406250   0.187500 0
  0.406250   0.250000 0
  0.406250   0.218750 0
  0.437500   0.250000 0
  0.437500   0.218750 0
  0.437500   0.187500 0
  0.500000   0.000000 0
  0.500000   0.031250 0
  0.468750   0.031250 0
  0.468750   0.000000 0
  0.500000   0.062500 0
  0.468750   0.062500 0
  0.812500   0.843750 0
  0.125000   0.125000 0
  0.812500   0.875000 0
  0.125000   0.156250 0
  0.500000   0.093750 0
  0.843750   0.875000 0
  0.156250   0.156250 0
  1.000000   1.000000 0
  0.312500   0.281250 0
  0.656250   0.218750 0
  0.437500   0.156250 0
  0.312500   0.500000 0
  0.437500   0.125000 0
  0.312500   0.468750 0
  0.437500   0.093750 0
  0.781250   0.031250 0
  0.312500   0.437500 0
  0.312500   0.406250 0
  0.312500   0.312500 0
  0.312500   0.343750 0
  0.312500   0.375000 0
  0.375000   0.437500 0
  0.375000   0.406250 0
  0.375000   0.343750 0
  0.718750   0.281250 0
  0.375000   0.375000 0
  0.968750   1.000000 0
  0.281250   0.281250 0
  0.406250   0.156250 0
  0.281250   0.500000 0
  0.406250   0.125000 0
  0.281250   0.468750 0
[...]
CELL_DATA 1024
SCALARS scalar_value float 1
LOOKUP_TABLE default
0
0
0
0
0
0
0
0
0
0
0
0
0
0
0
0
0
0
-1.8533e-10
0
0
0
0
0
0
0
0
0
0
0
3.57982e-10
0
-5.33078e-10
-1.04433e-10
0.000127451
-0.00197366
1.04435e-06
4.78187e-06
-1.55967e-09
-3.4418e-10
0.00198742
0.0332395
-0.000140868
5.02416e-09
-1.23015e-09
-5.97173e-09
2.64809e-07
4.65557e-09
1.07326e-08
1.93942e-09
-1.71677e-05
-3.02271e-08
9.04409e-08
-0.00296675
1.14148e-07
-3.45252e-05
-1.43108e-07
-7.79538e-06
1.72762e-09
-5.38358e-05
4.7566e-08
-1.99209e-08
-5.26824e-06
-0.00148557
0
0
0
0
0
0
0
0
0
0
0
0
-2.32893e-10
0
-1.03736e-10
0
0
0
0
0
0
2.47902e-10
1.48514e-09
-1.59051e-09
0
0
0
0
0
0
4.0564e-10
0
7.60296e-07
2.0354e-06
3.6376e-09
8.05751e-08
-3.1055e-05
-0.000196324
0.00342135
4.3546e-07
8.71391e-07
3.16947e-08
-5.57797e-09
-1.83954e-05
-1.34219e-05
0.000624048
0.00210804
-0.00188559
0.236975
-0.000135146
2.19175e-05
-4.1416e-08
-4.86034e-10
-4.5421e-07
-1.19475e-06
0.00118148
0.0329665
0.000449641
6.98851e-05
-1.11529e-06
-6.80785e-06
-2.57514e-08
7.3717e-09
0.0297035
-2.19156e-10
0
0
0
0
0
0
0
0
0
0
0
-2.3794e-10
0
0
0
0
0
0
0
0
0
0
0
0
0
0
0
0
0
0
-5.02604e-10
-1.85977e-09
-3.7211e-09
-2.72582e-10
-2.17897e-05
-2.82739e-05
-2.44273e-06
2.73302e-07
1.15605e-07
4.42298e-09
2.3035e-09
1.38357e-05
2.83755e-05
-6.539e-07
-2.39173e-06
3.829e-08
3.53803e-08
7.49459e-09
-2.0909e-10
-2.93004e-06
-9.23617e-09
6.29814e-08
-8.33695e-06
0.000639106
0.000160561
-7.04015e-09
-3.32951e-09
6.41301e-07
1.09026e-07
-2.30213e-06
-2.67209e-05
7.32581e-05
0.00149385
0
0
0
0
0
0
0
0
0
0
0
0
0
0
0
0
1.44485e-10
0
0
0
0
0
0
0
0
0
0
0
0
0
0
0
9.69618e-09
1.37393e-08
-2.67803e-10
1.17165e-09
-2.11077e-07
-3.78101e-09
7.37359e-08
-3.43988e-09
-1.91668e-10
-4.15939e-07
4.33102e-07
-2.02258e-06
-6.50144e-06
4.93803e-05
9.06832e-09
-5.37129e-10
-4.38793e-10
-1.97514e-05
-7.91619e-05
1.05977e-09
-3.04595e-10
9.57123e-09
1.97947e-08
4.60546e-08
-2.06551e-06
-7.36377e-08
-1.06803e-05
3.59952e-05
-7.61264e-06
4.92073e-05
-1.85001e-07
-2.05009e-06
1.99995
0.849188
3.00047
2.80198
2.58965
2.43685
-9.83427e-05
-0.00122491
1.08722
0.730437
5.00945e-05
-0.000503054
0.0162429
0.284745
0.866156
1.08345
0.678347
0.559779
-0.000454
-0.00390924
3.10299
2.87598
0.00395284
0.000489709
0.0112302
0.00252837
0.0233167
0.0232122
0.000290071
0.00136813
0.000695566
0.00133575
2.31506e-06
1.45976e-06
-2.24176e-07
1.06032e-07
1.13362
2.17669
-0.0004637
0.000129019
0.0012147
0.00133283
-0.00789365
0.271454
0.281811
0.0340956
-4.75898e-06
0.000250927
0.000157411
0.00049902
0.00318575
5.88696e-05
5.72923e-05
1.36478e-05
9.87342e-06
-0.00230801
0.00204554
3.79183e-05
-3.27766e-06
6.65972e-06
1.54834e-05
2.22605e-06
-0.000277436
1.82004e-05
3.94671
4.47707
1.05004
2.85867
4.63412
4.64609
4.64631
4.64246
2.29758
3.64888
0.724641
0.137102
4.63352
4.39054
4.6462
4.64579
4.19082
2.46811
0.793758
3.67345
4.30331
4.57056
4.60274
4.49549
4.53117
3.49443
3.8564
2.68966
1.44678
4.16462
3.95921
4.0438
4.46828
3.94854
4.53197
3.81604
2.51013
0.664588
-0.00313018
-0.00163364
0.000690585
4.26559e-07
2.75599
0.926263
-0.00065872
0.0173165
0.000840412
-5.26059e-05
3.86696
4.47497
2.60475
0.731908
0.000948563
-0.00021298
-0.00124228
-0.00160845
1.82835
0.315691
3.14047
3.87437
0.000168777
-0.000442806
0.000787439
-0.00140967
0.642971
-0.00075274
4.64674
4.64555
4.57449
4.11779
0.00444124
4.64671
4.64554
4.10911
4.57166
3.07499
0.000478361
0.105087
1.34649
0.0697857
0.00153237
3.07439
1.30918
0.494722
2.29966
3.69651
4.41513
4.63668
4.64508
4.6459
3.75482
2.45149
4.64605
4.42913
4.63636
4.64558
4.40868
4.63732
-0.00172581
-0.00111087
-0.00133059
1.92934
3.60139
4.41417
4.64053
-0.00102911
-0.000762014
-8.98677e-05
3.54726
4.64639
4.56444
0.405996
2.58103
4.02083
4.56328
4.64639
0.509226
2.69287
4.03612
-0.000632621
0.000311637
0.18545
0.00205428
-0.000429394
0.000488188
1.72347
0.105597
0.00148575
1.118
2.90207
0.00126808
0.0368897
4.00863
4.53842
1.29136
3.04444
0.0682364
0.00150222
4.57378
4.10634
4.64679
4.54122
4.64612
4.64553
4.64612
4.64556
4.5408
4.02012
0.0362131
0.00130151
1.11535
2.91195
4.64554
4.02298
1.11781
2.91904
4.64613
0.0373348
0.00134415
4.64556
3.97388
2.35956
4.64628
4.57087
0.257301
0.00213018
-0.000534956
0.000281029
-0.00321375
0.608263
4.06422
2.79177
4.5642
4.64633
3.84116
2.17033
4.51634
4.64569
0.00232747
0.212139
0.000589827
-0.000548872
-0.0026007
-0.00117556
0.00125547
0.332606
4.57612
4.64616
3.9862
2.42477
-7.16533e-05
-0.000801968
5.82322e-10
1.98587e-10
1.58845e-10
0
0
0
0
0
0
2.11261e-10
0
0
0
0
0
0
0
1.66985e-10
0
4.67493e-10
0
0
0
0
0
0
5.72717e-10
0
0
0
0
0
0.00148673
-1.35269e-05
-6.88559e-05
-2.37287e-08
-2.94487e-09
0.000131358
-0.00110297
-1.68432e-05
-3.65851e-06
8.5392e-07
5.72187e-08
-3.75945e-09
-3.00147e-08
0.000101208
0.000966167
-1.30214e-06
-3.06425e-05
1.00932e-06
4.15354e-08
6.34617e-05
1.09527e-06
-1.54098e-08
2.90774e-07
-3.44905e-05
-2.7106e-09
-3.30227e-08
2.56151e-07
6.56062e-08
1.21137e-09
-9.57575e-08
-1.72682e-10
-3.17188e-09
0
0
0
0
0
0
1.45229e-10
6.26398e-09
5.12157e-08
0
0
0
2.82942e-10
0
7.20177e-09
2.38077e-08
0
0
0
0
1.09784e-09
5.6039e-09
0
0
0
0
0
0
8.84164e-09
6.90499e-10
0
-1.36028e-10
-5.30683e-09
-2.94393e-06
-2.03362e-06
-2.24233e-07
4.764e-06
-9.18458e-06
0.000148245
0.000982752
0.00687578
0.600282
2.65542
0.000114548
0.00565249
-4.41081e-05
0.304933
2.07588
-1.9631e-08
-4.35095e-07
-1.18337e-06
3.05136e-05
0.162379
0.798545
0.000221394
0.00312611
-0.00245229
-1.37374e-06
1.13167e-05
-2.63517e-07
2.20055e-08
1.13461e-05
0.00559099
-0.000282785
0
0
-2.72701e-09
-7.46303e-09
0
-3.54385e-10
0
0
-1.48667e-09
-1.26776e-08
0
0
0
0
0
0
0
0
0
0
0
-7.20273e-08
0
-2.6177e-09
1.10494e-10
4.96156e-10
0
1.9668e-09
0
0
3.278e-10
-5.59117e-09
-6.66975e-07
-8.91194e-08
-0.000355403
0.000291616
4.73006e-05
-1.6839e-06
3.5855e-08
-1.10435e-07
0.907882
2.70327
7.51049e-05
6.99561e-06
2.41733e-07
2.03606e-06
0.00376089
0.0447065
-4.46014e-05
-1.17843e-05
3.66802e-06
-3.46781e-07
0.261767
1.27075
6.54139e-05
4.27799e-05
0.00827586
3.39773
1.69812
0.209904
2.07082
0.55378
0.00208709
0.0456658
0
0
0
0
0
0
0
0
0
0
0
0
0
0
0
1.06947e-10
2.13106e-09
0
0
0
0
0
0
0
0
0
0
0
0
0
0
0
-1.87516e-08
-3.85571e-07
7.28146e-10
4.32477e-09
-3.68502e-07
1.2422e-06
-0.000234663
0.00233704
-8.9397e-09
-1.35284e-07
1.13627e-09
2.60836e-10
3.85365e-06
1.13255e-08
-4.58389e-05
0.00113165
-0.0104682
1.58831e-08
1.74389e-09
-1.75817e-08
-9.72435e-07
-0.00105499
0.00192435
-3.25463e-06
-3.89147e-05
-2.21455e-07
5.19439e-07
-5.32833e-08
1.34051e-08
-0.00368753
-2.18748e-05
-0.000292758
0.0255307
0.570195
4.64651
4.64603
4.62427
4.33236
3.57755
2.24018
0.000458726
0.584113
4.64624
4.64634
4.40309
4.63515
3.68704
2.35569
0.0699608
0.00133221
4.08066
3.02083
1.26894
4.56418
4.64558
4.64674
0.641174
0.000726943
3.70836
2.40167
4.40819
4.63218
4.64577
4.64536
4.60688
4.24193
0.000360933
0.00018194
-0.00214044
-0.00539932
4.64679
0.567108
0.00115031
9.94175e-05
0.00867351
-0.00130245
0.966963
3.0765
3.95599
4.58202
2.47546
4.49797
4.64566
0.130976
1.94216
3.74799
0.00201516
-0.000281027
0.00104072
4.49596
1.66626
3.66054
0.064112
0.000508172
0.00123359
-0.000111233
4.58104
4.62962
3.99326
4.47436
4.63569
4.64414
4.41316
3.67227
4.64534
4.64566
4.64569
4.63016
4.44287
2.18236
0.519084
4.64576
4.61811
4.38334
2.22907
1.37313
3.44375
3.57763
4.3564
4.64507
4.60976
4.64547
4.60916
4.35125
4.64113
4.41812
4.63725
4.64538
0.870266
-0.00632156
3.86119
2.70079
0.00117411
0.487379
-0.0157023
2.26282
3.70015
0.00141693
0.00196157
0.00181748
-0.00033296
0.000276328
1.59597
0.195211
3.2802
4.28532
-0.00147168
2.05926e-05
-0.000108481
0.00030841
-0.000427322
0.00022996
2.46749
3.69186
0.780803
0.00385858
0.00229093
-0.000505285
0.000330273
0.00124759
4.33044
4.60469
4.56703
4.14076
3.22747
2.42296
4.24828
4.27451
4.04969
3.87965
3.75839
3.59883
3.81877
4.333
4.61619
4.55746
4.5956
4.5217
4.48498
4.64639
4.64848
4.64667
4.64663
4.21777
4.5709
4.46221
4.64553
4.64749
4.61559
4.64479
3.49584
4.30199
0.000286713
3.47074
3.94805
-0.00130719
-0.000657916
0.00134623
0.103977
1.30963
2.72915
3.99053
3.1562
0.000673343
-0.000234888
0.0298406
0.000675361
0.473312
1.75981
1.98962
3.27443
0.00397413
-0.00682058
0.573622
0.000132989
-0.00025952
2.61412
3.68496
0.0209074
1.00066
0.00282293
-1.69759e-05
-0.000360414
0.000354316
0.00336628
-0.000563755
0.000751891
-0.00147425
0.00215408
0.00634263
0.0107217
0.0170834
0.0161619
-0.0010894
-0.000158328
0.000113846
0.000505624
0.000362734
0.000523125
0.000193351
0.357397
0.03999
0.73042
0.81057
0.89652
0.572382
0.849173
0.920007
2.37746
2.56588
1.75727
0.406403
2.43954
2.83048
2.80699
2.92253
-0.00046061
-0.00667824
-0.00111036
-0.000209188
6.10366e-05
-0.00026272
-0.000292778
0.000709859
2.04654e-05
2.98954e-05
-5.0322e-06
1.47175e-06
1.62275
3.04703e-06
-3.9768e-06
1.28179e-07
6.96087e-09
-0.00353547
0.15842
0.425163
0.100703
0.811166
-0.00116001
-0.000813265
7.84242e-05
-0.000457551
0.0196231
0.00838824
0.000112816
-4.53192e-06
5.91744e-06
0.000403211
