# vtk DataFile Version 2.0
Unstructured Grid by M++
ASCII
DATASET UNSTRUCTURED_GRID
POINTS 1089 float
  0.968750   0.906250 0
  0.968750   0.937500 0
  1.000000   0.906250 0
  1.000000   0.937500 0
  1.000000   0.968750 0
  0.906250   0.906250 0
  0.906250   0.875000 0
  0.906250   0.812500 0
  0.906250   0.843750 0
  0.937500   0.906250 0
  0.937500   0.937500 0
  0.937500   0.843750 0
  0.937500   0.875000 0
  0.968750   0.875000 0
  0.968750   0.656250 0
  0.968750   0.687500 0
  1.000000   0.656250 0
  1.000000   0.625000 0
  1.000000   0.687500 0
  0.906250   0.656250 0
  0.906250   0.687500 0
  0.906250   0.625000 0
  0.906250   0.531250 0
  0.906250   0.562500 0
  0.906250   0.593750 0
  0.937500   0.656250 0
  0.937500   0.687500 0
  0.937500   0.531250 0
  0.937500   0.562500 0
  0.937500   0.593750 0
  0.937500   0.625000 0
  0.968750   0.625000 0
  0.968750   0.593750 0
  1.000000   0.593750 0
  0.968750   0.562500 0
  1.000000   0.562500 0
  1.000000   0.531250 0
  0.968750   0.531250 0
  0.781250   1.000000 0
  0.812500   0.781250 0
  0.812500   0.812500 0
  0.875000   0.843750 0
  0.875000   0.812500 0
  0.875000   0.875000 0
  0.781250   0.781250 0
  0.843750   0.843750 0
  0.843750   0.812500 0
  0.875000   0.781250 0
  0.843750   0.781250 0
  0.781250   0.750000 0
  0.781250   0.718750 0
  0.781250   0.687500 0
  0.812500   0.750000 0
  0.812500   0.718750 0
  0.812500   0.531250 0
  0.812500   0.687500 0
  0.812500   0.656250 0
  0.812500   0.562500 0
  0.812500   0.593750 0
  0.812500   0.625000 0
  0.875000   0.687500 0
  0.875000   0.656250 0
  0.875000   0.593750 0
  0.875000   0.562500 0
  0.875000   0.625000 0
  0.781250   0.531250 0
  0.781250   0.562500 0
  0.781250   0.625000 0
  0.781250   0.593750 0
  0.781250   0.656250 0
  0.843750   0.656250 0
  0.843750   0.593750 0
  0.843750   0.562500 0
  0.843750   0.625000 0
  0.843750   0.687500 0
  0.843750   0.750000 0
  0.875000   0.531250 0
  0.843750   0.531250 0
  0.656250   0.906250 0
  0.656250   0.937500 0
  0.656250   1.000000 0
  0.656250   0.968750 0
  0.687500   1.000000 0
  0.687500   0.968750 0
  0.687500   0.937500 0
  0.718750   0.937500 0
  0.718750   0.968750 0
  0.718750   1.000000 0
  0.656250   0.781250 0
  0.656250   0.812500 0
  0.656250   0.843750 0
  0.656250   0.875000 0
  0.750000   0.968750 0
  0.750000   1.000000 0
  0.750000   0.656250 0
  0.750000   0.625000 0
  0.687500   0.656250 0
  0.687500   0.687500 0
  0.687500   0.625000 0
  0.718750   0.656250 0
  0.718750   0.687500 0
  0.718750   0.718750 0
  0.656250   0.531250 0
  0.656250   0.562500 0
  0.656250   0.656250 0
  0.656250   0.687500 0
  0.656250   0.750000 0
  0.656250   0.718750 0
  0.656250   0.625000 0
  0.656250   0.593750 0
  0.750000   0.687500 0
  0.750000   0.718750 0
  0.750000   0.750000 0
  0.687500   0.531250 0
  0.687500   0.562500 0
  0.687500   0.593750 0
  0.718750   0.625000 0
  0.750000   0.531250 0
  0.718750   0.531250 0
  0.750000   0.562500 0
  0.718750   0.562500 0
  0.718750   0.593750 0
  0.750000   0.593750 0
  0.562500   1.000000 0
  0.562500   0.968750 0
  0.562500   0.937500 0
  0.562500   0.906250 0
  0.562500   0.812500 0
  0.562500   0.843750 0
  0.562500   0.875000 0
  0.625000   0.937500 0
  0.625000   0.906250 0
  0.562500   0.781250 0
  0.625000   0.875000 0
  0.531250   1.000000 0
  0.531250   0.968750 0
  0.531250   0.937500 0
  0.531250   0.812500 0
  0.531250   0.875000 0
  0.531250   0.843750 0
  0.531250   0.906250 0
  0.593750   0.906250 0
  0.593750   0.843750 0
  0.593750   0.875000 0
  0.593750   0.812500 0
  0.625000   0.843750 0
  0.625000   0.812500 0
  0.593750   0.937500 0
  0.625000   1.000000 0
  0.593750   1.000000 0
  0.593750   0.968750 0
  0.625000   0.968750 0
  0.625000   0.781250 0
  0.593750   0.781250 0
  0.562500   0.531250 0
  0.562500   0.750000 0
  0.562500   0.718750 0
  0.562500   0.687500 0
  0.562500   0.656250 0
  0.562500   0.562500 0
  0.562500   0.593750 0
  0.562500   0.625000 0
  0.625000   0.687500 0
  0.625000   0.656250 0
  0.625000   0.593750 0
  0.625000   0.562500 0
  0.625000   0.625000 0
  0.531250   0.531250 0
  0.531250   0.750000 0
  0.531250   0.718750 0
  0.531250   0.687500 0
  0.531250   0.562500 0
  0.531250   0.625000 0
  0.531250   0.593750 0
  0.531250   0.656250 0
  0.593750   0.656250 0
  0.593750   0.593750 0
  0.593750   0.562500 0
  0.593750   0.625000 0
  0.593750   0.687500 0
  0.625000   0.750000 0
  0.593750   0.750000 0
  0.593750   0.718750 0
  0.625000   0.718750 0
  0.625000   0.531250 0
  0.593750   0.531250 0
  0.968750   0.406250 0
  0.968750   0.437500 0
  0.968750   0.468750 0
  0.968750   0.500000 0
  1.000000   0.406250 0
  1.000000   0.375000 0
  1.000000   0.437500 0
  1.000000   0.468750 0
  1.000000   0.500000 0
  0.906250   0.500000 0
  0.906250   0.406250 0
  0.906250   0.437500 0
  0.906250   0.281250 0
  0.906250   0.312500 0
  0.906250   0.343750 0
  0.906250   0.375000 0
  0.937500   0.406250 0
  0.937500   0.500000 0
  0.937500   0.468750 0
  0.937500   0.437500 0
  0.937500   0.281250 0
  0.937500   0.312500 0
  0.937500   0.343750 0
  0.937500   0.375000 0
  0.968750   0.375000 0
  1.000000   0.281250 0
  0.968750   0.281250 0
  1.000000   0.312500 0
  0.968750   0.312500 0
  0.968750   0.343750 0
  1.000000   0.343750 0
  0.968750   0.125000 0
  0.968750   0.156250 0
  0.968750   0.187500 0
  1.000000   0.000000 0
  1.000000   0.156250 0
  1.000000   0.125000 0
  1.000000   0.187500 0
  1.000000   0.218750 0
  0.531250   0.781250 0
  1.000000   0.250000 0
  0.906250   0.250000 0
  0.906250   0.218750 0
  0.937500   0.250000 0
  0.937500   0.218750 0
  0.968750   0.250000 0
  0.906250   0.031250 0
  0.906250   0.000000 0
  0.906250   0.062500 0
  0.906250   0.093750 0
  0.906250   0.125000 0
  0.937500   0.156250 0
  0.937500   0.031250 0
  0.937500   0.000000 0
  0.937500   0.062500 0
  0.937500   0.093750 0
  0.937500   0.125000 0
  1.000000   0.031250 0
  0.968750   0.031250 0
  0.968750   0.000000 0
  1.000000   0.062500 0
  0.968750   0.062500 0
  0.968750   0.093750 0
  1.000000   0.093750 0
  0.781250   0.312500 0
  0.781250   0.343750 0
  0.812500   0.500000 0
  0.812500   0.468750 0
  0.812500   0.437500 0
  0.812500   0.281250 0
  0.812500   0.312500 0
  0.812500   0.343750 0
  0.812500   0.375000 0
  0.875000   0.281250 0
  0.875000   0.406250 0
  0.875000   0.343750 0
  0.875000   0.312500 0
  0.875000   0.375000 0
  0.843750   0.281250 0
  0.843750   0.312500 0
  0.843750   0.375000 0
  0.843750   0.343750 0
  0.781250   0.500000 0
  0.781250   0.468750 0
  0.781250   0.437500 0
  0.781250   0.406250 0
  0.875000   0.500000 0
  0.843750   0.500000 0
  0.843750   0.468750 0
  0.875000   0.468750 0
  0.781250   0.281250 0
  0.843750   0.218750 0
  0.843750   0.250000 0
  0.843750   0.187500 0
  0.843750   0.156250 0
  0.875000   0.218750 0
  0.875000   0.250000 0
  0.875000   0.187500 0
  0.812500   0.062500 0
  0.812500   0.250000 0
  0.812500   0.218750 0
  0.812500   0.187500 0
  0.812500   0.156250 0
  0.812500   0.125000 0
  0.843750   0.093750 0
  0.843750   0.062500 0
  0.875000   0.125000 0
  0.875000   0.093750 0
  0.875000   0.062500 0
  0.781250   0.250000 0
  0.781250   0.218750 0
  0.781250   0.187500 0
  0.093750   0.937500 0
  0.125000   1.000000 0
  0.937500   0.718750 0
  0.250000   0.000000 0
  0.093750   0.968750 0
  0.125000   0.968750 0
  0.000000   0.718750 0
  0.000000   0.750000 0
  0.125000   0.531250 0
  0.125000   0.562500 0
  0.093750   0.531250 0
  0.031250   0.750000 0
  0.125000   0.468750 0
  0.156250   0.468750 0
  0.500000   0.375000 0
  0.156250   0.500000 0
  0.406250   0.406250 0
  0.406250   0.437500 0
  0.406250   0.500000 0
  0.406250   0.468750 0
  0.406250   0.375000 0
  0.750000   0.312500 0
  0.437500   0.406250 0
  0.437500   0.500000 0
  0.437500   0.468750 0
  0.437500   0.437500 0
  0.468750   0.437500 0
  0.468750   0.468750 0
  0.406250   0.281250 0
  0.406250   0.312500 0
  0.062500   0.375000 0
  0.406250   0.343750 0
  0.062500   0.406250 0
  0.500000   0.468750 0
  0.500000   0.500000 0
  0.437500   0.281250 0
  0.437500   0.312500 0
  0.437500   0.343750 0
  0.093750   0.406250 0
  0.437500   0.375000 0
  0.093750   0.437500 0
  0.468750   0.375000 0
  0.125000   0.437500 0
  0.500000   0.281250 0
  0.468750   0.281250 0
  0.500000   0.312500 0
  0.468750   0.312500 0
  0.468750   0.343750 0
  0.500000   0.343750 0
  0.843750   0.906250 0
  0.156250   0.187500 0
  0.468750   0.187500 0
  0.468750   0.218750 0
  0.468750   0.250000 0
  0.406250   0.031250 0
  0.750000   0.812500 0
  0.062500   0.093750 0
  0.406250   0.000000 0
  0.750000   0.781250 0
  0.062500   0.062500 0
  0.500000   0.187500 0
  0.500000   0.218750 0
  0.500000   0.250000 0
  0.437500   0.031250 0
  0.781250   0.812500 0
  0.093750   0.093750 0
  0.437500   0.000000 0
  0.437500   0.062500 0
  0.781250   0.843750 0
  0.093750   0.125000 0
  0.406250   0.187500 0
  0.406250   0.250000 0
  0.406250   0.218750 0
  0.437500   0.250000 0
  0.437500   0.218750 0
  0.437500   0.187500 0
  0.500000   0.000000 0
  0.500000   0.031250 0
  0.468750   0.031250 0
  0.468750   0.000000 0
  0.500000   0.062500 0
  0.468750   0.062500 0
  0.812500   0.843750 0
  0.125000   0.125000 0
  0.812500   0.875000 0
  0.125000   0.156250 0
  0.500000   0.093750 0
  0.843750   0.875000 0
  0.156250   0.156250 0
  1.000000   1.000000 0
  0.312500   0.281250 0
  0.656250   0.218750 0
  0.437500   0.156250 0
  0.312500   0.500000 0
  0.437500   0.125000 0
  0.312500   0.468750 0
  0.437500   0.093750 0
  0.781250   0.031250 0
  0.312500   0.437500 0
  0.312500   0.406250 0
  0.312500   0.312500 0
  0.312500   0.343750 0
  0.312500   0.375000 0
  0.375000   0.437500 0
  0.375000   0.406250 0
  0.375000   0.343750 0
  0.718750   0.281250 0
  0.375000   0.375000 0
  0.968750   1.000000 0
  0.281250   0.281250 0
  0.406250   0.156250 0
  0.281250   0.500000 0
  0.406250   0.125000 0
  0.281250   0.468750 0
[...]
CELL_DATA 1024
SCALARS scalar_value float 1
LOOKUP_TABLE default
0
0
0
0
0
0
0
0
0
0
0
0
0
0
0
0
0
0
0
0
0
0
0
0
0
0
0
0
0
0
0
0
0
0
1.2864e-08
3.13064e-07
-1.06563e-10
0
0
0
1.93903e-07
1.15505e-06
1.72538e-08
0
0
0
0
0
0
0
1.95832e-09
1.63272e-10
0
3.66324e-10
0
3.00159e-10
0
0
0
0
0
0
0
2.86413e-10
0
0
0
0
0
0
0
0
0
0
0
0
0
0
0
0
0
0
0
0
0
0
0
0
0
0
0
0
0
0
0
0
-9.92577e-10
-1.14748e-08
0
0
-1.21419e-07
-1.09378e-06
-7.23248e-06
4.14654e-10
5.41751e-09
0
0
6.17512e-07
5.91117e-08
6.66122e-06
6.94873e-05
5.91174e-06
9.97539e-05
-3.05498e-07
-4.6092e-08
0
0
-5.37751e-10
-5.27743e-09
5.79188e-08
5.60216e-05
2.73615e-07
2.99316e-09
-1.14859e-10
-8.60369e-10
0
0
1.93304e-05
0
0
0
0
0
0
0
0
0
0
0
0
0
0
0
0
0
0
0
0
0
0
0
0
0
0
0
0
0
0
0
0
0
0
0
3.49811e-06
2.89435e-05
4.08851e-07
4.59949e-08
4.99714e-09
5.2017e-10
0
3.41453e-06
2.85709e-05
4.24301e-08
3.84369e-07
4.54676e-09
4.56057e-10
0
0
6.68315e-08
5.55953e-09
3.94648e-10
7.34887e-07
7.85252e-05
7.73768e-06
0
0
3.57473e-09
1.75967e-10
5.30664e-08
6.39852e-07
7.52316e-06
8.36016e-05
0
0
0
0
0
0
0
0
0
0
0
0
0
0
0
0
0
0
0
0
0
0
0
0
0
0
0
0
0
0
0
0
3.8686e-10
3.53758e-09
0
0
3.13491e-08
4.65167e-10
4.48271e-09
0
0
3.78741e-07
4.18697e-08
2.73216e-07
2.29618e-06
1.86466e-05
3.78503e-10
0
0
3.30182e-06
2.79956e-05
0
0
3.8459e-10
3.52486e-09
3.47052e-09
2.69054e-07
3.08913e-08
2.26808e-06
1.84874e-05
2.29861e-06
1.87318e-05
3.14005e-08
2.73336e-07
-0.000113152
2.62325e-06
2.55348
2.10964
1.10139
0.152414
-2.47477e-06
-4.50383e-08
0.76985
0.804047
4.51926e-05
-3.03456e-05
4.3465e-06
7.72569e-06
0.384021
0.699566
0.0631759
-0.00146323
-1.34548e-05
-2.77892e-07
2.61865
2.67917
0.000197884
-0.000192172
0.000646812
0.00672036
0.00529229
0.00328963
0.000264532
0.00012403
6.33649e-05
1.55332e-05
-3.45628e-07
-1.286e-07
-2.82016e-08
-4.18935e-08
2.60668
2.71707
3.72859e-05
3.99608e-05
-0.00212322
0.177128
1.12182
2.10112
0.825381
0.739583
3.33017e-05
-0.000935199
7.26372e-05
0.0671386
0.387758
0.000397598
0.000243256
0.000104453
7.17454e-06
0.00757101
0.00475396
1.28176e-05
1.3021e-05
4.6317e-05
2.74583e-05
7.87867e-07
0.000331893
0.000251192
1.3783
3.10058
0.00186396
0.0806295
4.10506
4.55868
4.64223
4.64251
0.955684
2.79142
0.0182788
0.000719581
4.5111
3.95287
4.64424
4.64547
3.89209
0.0369824
0.00150551
1.10885
2.85221
4.47426
4.48584
3.9083
4.3822
0.680244
2.21259
-0.00422924
0.000791141
3.8549
3.31273
3.78911
4.64405
4.61692
4.64598
4.61556
4.30622
3.48798
1.97336
0.286557
-0.000446076
-0.000215471
4.30466
3.48399
0.288529
1.97578
-0.000458435
-0.00021651
4.47566
4.49647
4.15814
3.3261
0.000297339
-3.49595e-05
1.79332
0.214014
3.4905
2.58388
3.87237
3.92181
0.00040345
0.000518689
1.007
0.0238992
0.0209396
0.000862896
4.64247
4.64555
4.48408
3.88419
0.000776571
4.64246
4.64555
3.88202
4.48359
2.66444
0.000231269
0.00789158
0.81471
0.0079746
0.000233522
2.66835
0.818927
0.018708
0.972677
2.80533
3.95841
4.51269
4.64551
4.64436
2.8199
0.995213
4.64434
3.96437
4.51428
4.64553
4.63004
4.64582
-0.000533025
-0.000151447
0.412613
3.61116
4.3735
4.63058
4.64575
-0.000535426
-0.000154701
0.394902
4.37409
4.64568
4.63524
2.24147
3.68722
4.41019
4.63531
4.64569
2.27123
3.69747
4.41182
-0.000191371
-0.000600386
2.1495
0.360174
-0.000192969
-0.000556789
3.60545
2.12069
0.345244
0.791837
2.63733
0.000146927
0.00658015
3.86344
4.47543
0.817781
2.66426
0.00799162
0.000225936
4.48443
3.88267
4.64252
4.47576
4.64178
4.64557
4.64179
4.64556
4.4758
3.86532
0.00654584
0.00014712
0.790968
2.63853
4.64555
3.86542
0.789664
2.63843
4.6418
0.00651309
0.0001453
4.64556
4.40863
3.67139
4.64564
4.63564
2.2083
0.370666
-0.000156304
-0.000483745
0.429225
2.28979
4.41387
3.70635
4.63527
4.64571
4.39396
3.64588
4.63332
4.64571
0.349882
2.1682
-0.000458012
-0.000162585
-0.000549384
-0.000150254
0.36847
2.21088
4.63596
4.64562
4.41007
3.67302
-0.000459383
-0.00015082
0
0
0
0
0
0
0
0
0
0
0
0
0
0
0
0
0
0
0
0
0
0
0
0
0
0
0
0
0
0
0
0
8.27655e-05
3.20219e-06
2.7762e-05
0
0
6.48818e-06
7.18987e-05
5.20487e-07
3.63847e-08
2.0715e-09
0
0
0
7.34479e-06
7.87836e-05
4.54451e-08
6.2412e-07
2.57771e-09
0
7.78678e-06
2.43121e-09
0
4.68438e-08
6.61958e-07
0
0
3.94291e-08
4.216e-09
4.32323e-10
3.58919e-07
0
0
0
0
0
0
0
0
0
0
0
0
0
0
0
0
0
0
0
0
0
0
0
0
0
0
0
0
0
0
0
0
0
0
0
0
0
0
3.81191e-10
4.47898e-10
3.9019e-09
1.72537e-08
-2.80974e-07
-1.03729e-05
-0.000170435
2.35861e-09
-7.20416e-07
-1.05256e-08
-1.56271e-05
-0.000200899
0
0
-4.66238e-10
-6.45116e-09
-2.58423e-06
4.14783e-05
-7.34542e-08
-6.46053e-07
5.33696e-05
-6.18236e-10
-8.55167e-09
0
0
-9.87248e-08
-3.56064e-06
-8.56743e-07
0
0
0
0
0
0
0
0
0
0
0
0
0
0
0
0
0
0
0
0
0
0
0
0
0
0
0
0
0
0
0
0
0
0
-3.03964e-07
-2.8359e-08
-2.15351e-09
-1.54348e-10
0
0
-6.94745e-06
-0.000111313
3.31426e-10
2.35748e-10
0
0
3.18422e-08
9.59993e-09
3.74059e-09
3.11899e-10
0
0
-2.46427e-06
3.09326e-05
5.76652e-09
4.17014e-10
6.7719e-08
-8.67242e-05
-5.37579e-07
5.45286e-07
-0.000186626
-1.73601e-05
-3.56909e-08
-9.944e-07
0
0
0
0
0
0
0
0
0
0
0
0
0
0
0
0
0
0
0
0
0
0
0
0
0
0
0
0
0
0
0
0
0
0
0
0
0
-4.54836e-10
-3.85238e-09
5.57898e-09
0
0
0
0
0
0
-8.70706e-10
-2.96693e-09
-2.41216e-06
0
0
0
0
8.96707e-09
5.98696e-07
-2.27215e-10
-1.42585e-09
0
0
0
0
-2.46892e-07
-6.5082e-10
-1.81232e-08
0.000744491
0.0189891
4.64393
4.64554
4.50436
3.93866
2.78468
0.965574
0.000805088
0.0199203
4.64423
4.64554
3.95367
4.51057
2.80373
0.982468
0.00799721
0.000226358
3.8788
2.66211
0.816102
4.48206
4.64556
4.64231
0.0212498
0.000858165
2.81825
0.99753
3.96386
4.51507
4.64444
4.64551
4.64594
4.621
-0.000267401
-0.000209066
0.256779
1.90689
4.64566
3.46149
-0.00049391
-0.000225436
1.95923
0.287125
3.47892
4.31537
4.62272
4.64581
4.31138
4.63305
4.6457
2.13308
3.62781
4.38956
0.331918
-0.000167197
-0.000421264
4.63292
3.59591
4.38406
2.05931
0.299203
-0.000344643
-0.000176033
2.03406
3.5102
0.000872559
0.330486
1.95347
3.47803
0.277438
0.000771761
4.2961
4.30591
4.61509
4.64658
4.64555
0.0580858
0.00165679
4.61325
4.6467
4.64553
0.05893
0.00140779
1.21968
1.25454
3.02758
4.56652
4.09311
4.64663
4.64554
3.005
4.64652
4.64554
4.0814
4.56249
4.23576
3.30644
4.6464
4.60238
1.64273
4.15013
3.23482
4.57107
4.64608
0.189227
1.6724
0.157119
0.000290636
-0.000153982
4.18858
3.29099
4.5843
4.64627
0.185482
1.7013
5.26488e-05
-0.000193721
-0.000115206
-0.000223414
4.59048
4.64632
4.20245
3.28728
1.67009
0.000169375
-0.000166328
0.166954
4.64406
4.64385
4.64666
4.64545
0.0216279
0.00164724
3.85094
3.90393
3.76939
3.34768
2.35588
0.888725
0.00169792
0.261096
4.48147
4.12674
4.44029
3.32012
1.84897
3.56729
2.15492
4.32207
4.61437
0.00195029
0.404966
4.49538
4.2764
3.43113
1.86965
4.60813
0.000976416
0.240737
-0.000199198
3.88483
3.94671
0.0010209
0.000214627
0.0759381
1.23219
2.75283
3.53332
4.51611
4.48641
-7.14803e-05
-9.57497e-05
1.87765
0.270763
3.34987
4.13714
4.58214
4.64616
1.71252
3.28773
4.18747
0.189248
-1.72241e-06
4.59668
4.64598
3.34066
4.2308
1.7452
0.195088
7.63936e-05
-0.000183018
4.92744e-07
1.27434e-06
6.37917e-08
6.43043e-06
3.51769e-05
-9.33457e-05
0.000495134
0.00339755
0.00489579
0.00595495
3.59471e-06
-1.08091e-05
3.84584e-05
4.5439e-05
4.24849e-05
0.000131357
0.000123499
9.66113e-06
7.62283e-05
0.0694393
0.750893
0.761227
0.40378
0.707391
0.124142
1.087
0.000365502
-1.11448e-05
2.66931
2.60156
2.14755
2.54745
-0.000541264
0.00661218
0.00405947
-6.53058e-05
-4.74874e-05
0.000177871
0.000222324
-0.000324328
0.000338411
8.05641e-06
6.24306e-07
-3.32442e-07
2.70144
1.12243e-06
4.47752e-05
4.81181e-08
-4.097e-08
0.723632
0.787252
2.01983
0.984514
2.55345
-0.00212686
0.108598
6.604e-05
8.09875e-05
0.38692
0.0689244
3.76691e-05
1.17666e-05
0.00111636
4.9777e-05
