# vtk DataFile Version 2.0
Unstructured Grid by M++
ASCII
DATASET UNSTRUCTURED_GRID
POINTS 1089 float
  0.968750   0.906250 0
  0.968750   0.937500 0
  1.000000   0.906250 0
  1.000000   0.937500 0
  1.000000   0.968750 0
  0.906250   0.906250 0
  0.906250   0.875000 0
  0.906250   0.812500 0
  0.906250   0.843750 0
  0.937500   0.906250 0
  0.937500   0.937500 0
  0.937500   0.843750 0
  0.937500   0.875000 0
  0.968750   0.875000 0
  0.968750   0.656250 0
  0.968750   0.687500 0
  1.000000   0.656250 0
  1.000000   0.625000 0
  1.000000   0.687500 0
  0.906250   0.656250 0
  0.906250   0.687500 0
  0.906250   0.625000 0
  0.906250   0.531250 0
  0.906250   0.562500 0
  0.906250   0.593750 0
  0.937500   0.656250 0
  0.937500   0.687500 0
  0.937500   0.531250 0
  0.937500   0.562500 0
  0.937500   0.593750 0
  0.937500   0.625000 0
  0.968750   0.625000 0
  0.968750   0.593750 0
  1.000000   0.593750 0
  0.968750   0.562500 0
  1.000000   0.562500 0
  1.000000   0.531250 0
  0.968750   0.531250 0
  0.781250   1.000000 0
  0.812500   0.781250 0
  0.812500   0.812500 0
  0.875000   0.843750 0
  0.875000   0.812500 0
  0.875000   0.875000 0
  0.781250   0.781250 0
  0.843750   0.843750 0
  0.843750   0.812500 0
  0.875000   0.781250 0
  0.843750   0.781250 0
  0.781250   0.750000 0
  0.781250   0.718750 0
  0.781250   0.687500 0
  0.812500   0.750000 0
  0.812500   0.718750 0
  0.812500   0.531250 0
  0.812500   0.687500 0
  0.812500   0.656250 0
  0.812500   0.562500 0
  0.812500   0.593750 0
  0.812500   0.625000 0
  0.875000   0.687500 0
  0.875000   0.656250 0
  0.875000   0.593750 0
  0.875000   0.562500 0
  0.875000   0.625000 0
  0.781250   0.531250 0
  0.781250   0.562500 0
  0.781250   0.625000 0
  0.781250   0.593750 0
  0.781250   0.656250 0
  0.843750   0.656250 0
  0.843750   0.593750 0
  0.843750   0.562500 0
  0.843750   0.625000 0
  0.843750   0.687500 0
  0.843750   0.750000 0
  0.875000   0.531250 0
  0.843750   0.531250 0
  0.656250   0.906250 0
  0.656250   0.937500 0
  0.656250   1.000000 0
  0.656250   0.968750 0
  0.687500   1.000000 0
  0.687500   0.968750 0
  0.687500   0.937500 0
  0.718750   0.937500 0
  0.718750   0.968750 0
  0.718750   1.000000 0
  0.656250   0.781250 0
  0.656250   0.812500 0
  0.656250   0.843750 0
  0.656250   0.875000 0
  0.750000   0.968750 0
  0.750000   1.000000 0
  0.750000   0.656250 0
  0.750000   0.625000 0
  0.687500   0.656250 0
  0.687500   0.687500 0
  0.687500   0.625000 0
  0.718750   0.656250 0
  0.718750   0.687500 0
  0.718750   0.718750 0
  0.656250   0.531250 0
  0.656250   0.562500 0
  0.656250   0.656250 0
  0.656250   0.687500 0
  0.656250   0.750000 0
  0.656250   0.718750 0
  0.656250   0.625000 0
  0.656250   0.593750 0
  0.750000   0.687500 0
  0.750000   0.718750 0
  0.750000   0.750000 0
  0.687500   0.531250 0
  0.687500   0.562500 0
  0.687500   0.593750 0
  0.718750   0.625000 0
  0.750000   0.531250 0
  0.718750   0.531250 0
  0.750000   0.562500 0
  0.718750   0.562500 0
  0.718750   0.593750 0
  0.750000   0.593750 0
  0.562500   1.000000 0
  0.562500   0.968750 0
  0.562500   0.937500 0
  0.562500   0.906250 0
  0.562500   0.812500 0
  0.562500   0.843750 0
  0.562500   0.875000 0
  0.625000   0.937500 0
  0.625000   0.906250 0
  0.562500   0.781250 0
  0.625000   0.875000 0
  0.531250   1.000000 0
  0.531250   0.968750 0
  0.531250   0.937500 0
  0.531250   0.812500 0
  0.531250   0.875000 0
  0.531250   0.843750 0
  0.531250   0.906250 0
  0.593750   0.906250 0
  0.593750   0.843750 0
  0.593750   0.875000 0
  0.593750   0.812500 0
  0.625000   0.843750 0
  0.625000   0.812500 0
  0.593750   0.937500 0
  0.625000   1.000000 0
  0.593750   1.000000 0
  0.593750   0.968750 0
  0.625000   0.968750 0
  0.625000   0.781250 0
  0.593750   0.781250 0
  0.562500   0.531250 0
  0.562500   0.750000 0
  0.562500   0.718750 0
  0.562500   0.687500 0
  0.562500   0.656250 0
  0.562500   0.562500 0
  0.562500   0.593750 0
  0.562500   0.625000 0
  0.625000   0.687500 0
  0.625000   0.656250 0
  0.625000   0.593750 0
  0.625000   0.562500 0
  0.625000   0.625000 0
  0.531250   0.531250 0
  0.531250   0.750000 0
  0.531250   0.718750 0
  0.531250   0.687500 0
  0.531250   0.562500 0
  0.531250   0.625000 0
  0.531250   0.593750 0
  0.531250   0.656250 0
  0.593750   0.656250 0
  0.593750   0.593750 0
  0.593750   0.562500 0
  0.593750   0.625000 0
  0.593750   0.687500 0
  0.625000   0.750000 0
  0.593750   0.750000 0
  0.593750   0.718750 0
  0.625000   0.718750 0
  0.625000   0.531250 0
  0.593750   0.531250 0
  0.968750   0.406250 0
  0.968750   0.437500 0
  0.968750   0.468750 0
  0.968750   0.500000 0
  1.000000   0.406250 0
  1.000000   0.375000 0
  1.000000   0.437500 0
  1.000000   0.468750 0
  1.000000   0.500000 0
  0.906250   0.500000 0
  0.906250   0.406250 0
  0.906250   0.437500 0
  0.906250   0.281250 0
  0.906250   0.312500 0
  0.906250   0.343750 0
  0.906250   0.375000 0
  0.937500   0.406250 0
  0.937500   0.500000 0
  0.937500   0.468750 0
  0.937500   0.437500 0
  0.937500   0.281250 0
  0.937500   0.312500 0
  0.937500   0.343750 0
  0.937500   0.375000 0
  0.968750   0.375000 0
  1.000000   0.281250 0
  0.968750   0.281250 0
  1.000000   0.312500 0
  0.968750   0.312500 0
  0.968750   0.343750 0
  1.000000   0.343750 0
  0.968750   0.125000 0
  0.968750   0.156250 0
  0.968750   0.187500 0
  1.000000   0.000000 0
  1.000000   0.156250 0
  1.000000   0.125000 0
  1.000000   0.187500 0
  1.000000   0.218750 0
  0.531250   0.781250 0
  1.000000   0.250000 0
  0.906250   0.250000 0
  0.906250   0.218750 0
  0.937500   0.250000 0
  0.937500   0.218750 0
  0.968750   0.250000 0
  0.906250   0.031250 0
  0.906250   0.000000 0
  0.906250   0.062500 0
  0.906250   0.093750 0
  0.906250   0.125000 0
  0.937500   0.156250 0
  0.937500   0.031250 0
  0.937500   0.000000 0
  0.937500   0.062500 0
  0.937500   0.093750 0
  0.937500   0.125000 0
  1.000000   0.031250 0
  0.968750   0.031250 0
  0.968750   0.000000 0
  1.000000   0.062500 0
  0.968750   0.062500 0
  0.968750   0.093750 0
  1.000000   0.093750 0
  0.781250   0.312500 0
  0.781250   0.343750 0
  0.812500   0.500000 0
  0.812500   0.468750 0
  0.812500   0.437500 0
  0.812500   0.281250 0
  0.812500   0.312500 0
  0.812500   0.343750 0
  0.812500   0.375000 0
  0.875000   0.281250 0
  0.875000   0.406250 0
  0.875000   0.343750 0
  0.875000   0.312500 0
  0.875000   0.375000 0
  0.843750   0.281250 0
  0.843750   0.312500 0
  0.843750   0.375000 0
  0.843750   0.343750 0
  0.781250   0.500000 0
  0.781250   0.468750 0
  0.781250   0.437500 0
  0.781250   0.406250 0
  0.875000   0.500000 0
  0.843750   0.500000 0
  0.843750   0.468750 0
  0.875000   0.468750 0
  0.781250   0.281250 0
  0.843750   0.218750 0
  0.843750   0.250000 0
  0.843750   0.187500 0
  0.843750   0.156250 0
  0.875000   0.218750 0
  0.875000   0.250000 0
  0.875000   0.187500 0
  0.812500   0.062500 0
  0.812500   0.250000 0
  0.812500   0.218750 0
  0.812500   0.187500 0
  0.812500   0.156250 0
  0.812500   0.125000 0
  0.843750   0.093750 0
  0.843750   0.062500 0
  0.875000   0.125000 0
  0.875000   0.093750 0
  0.875000   0.062500 0
  0.781250   0.250000 0
  0.781250   0.218750 0
  0.781250   0.187500 0
  0.093750   0.937500 0
  0.125000   1.000000 0
  0.937500   0.718750 0
  0.250000   0.000000 0
  0.093750   0.968750 0
  0.125000   0.968750 0
  0.000000   0.718750 0
  0.000000   0.750000 0
  0.125000   0.531250 0
  0.125000   0.562500 0
  0.093750   0.531250 0
  0.031250   0.750000 0
  0.125000   0.468750 0
  0.156250   0.468750 0
  0.500000   0.375000 0
  0.156250   0.500000 0
  0.406250   0.406250 0
  0.406250   0.437500 0
  0.406250   0.500000 0
  0.406250   0.468750 0
  0.406250   0.375000 0
  0.750000   0.312500 0
  0.437500   0.406250 0
  0.437500   0.500000 0
  0.437500   0.468750 0
  0.437500   0.437500 0
  0.468750   0.437500 0
  0.468750   0.468750 0
  0.406250   0.281250 0
  0.406250   0.312500 0
  0.062500   0.375000 0
  0.406250   0.343750 0
  0.062500   0.406250 0
  0.500000   0.468750 0
  0.500000   0.500000 0
  0.437500   0.281250 0
  0.437500   0.312500 0
  0.437500   0.343750 0
  0.093750   0.406250 0
  0.437500   0.375000 0
  0.093750   0.437500 0
  0.468750   0.375000 0
  0.125000   0.437500 0
  0.500000   0.281250 0
  0.468750   0.281250 0
  0.500000   0.312500 0
  0.468750   0.312500 0
  0.468750   0.343750 0
  0.500000   0.343750 0
  0.843750   0.906250 0
  0.156250   0.187500 0
  0.468750   0.187500 0
  0.468750   0.218750 0
  0.468750   0.250000 0
  0.406250   0.031250 0
  0.750000   0.812500 0
  0.062500   0.093750 0
  0.406250   0.000000 0
  0.750000   0.781250 0
  0.062500   0.062500 0
  0.500000   0.187500 0
  0.500000   0.218750 0
  0.500000   0.250000 0
  0.437500   0.031250 0
  0.781250   0.812500 0
  0.093750   0.093750 0
  0.437500   0.000000 0
  0.437500   0.062500 0
  0.781250   0.843750 0
  0.093750   0.125000 0
  0.406250   0.187500 0
  0.406250   0.250000 0
  0.406250   0.218750 0
  0.437500   0.250000 0
  0.437500   0.218750 0
  0.437500   0.187500 0
  0.500000   0.000000 0
  0.500000   0.031250 0
  0.468750   0.031250 0
  0.468750   0.000000 0
  0.500000   0.062500 0
  0.468750   0.062500 0
  0.812500   0.843750 0
  0.125000   0.125000 0
  0.812500   0.875000 0
  0.125000   0.156250 0
  0.500000   0.093750 0
  0.843750   0.875000 0
  0.156250   0.156250 0
  1.000000   1.000000 0
  0.312500   0.281250 0
  0.656250   0.218750 0
  0.437500   0.156250 0
  0.312500   0.500000 0
  0.437500   0.125000 0
  0.312500   0.468750 0
  0.437500   0.093750 0
  0.781250   0.031250 0
  0.312500   0.437500 0
  0.312500   0.406250 0
  0.312500   0.312500 0
  0.312500   0.343750 0
  0.312500   0.375000 0
  0.375000   0.437500 0
  0.375000   0.406250 0
  0.375000   0.343750 0
  0.718750   0.281250 0
  0.375000   0.375000 0
  0.968750   1.000000 0
  0.281250   0.281250 0
  0.406250   0.156250 0
  0.281250   0.500000 0
  0.406250   0.125000 0
  0.281250   0.468750 0
[...]
CELL_DATA 1024
SCALARS scalar_value float 1
LOOKUP_TABLE default
-0.000314273
3.57102e-05
-0.0370118
-0.00180634
2.40712e-06
-8.22871e-07
-8.01356e-08
-0.000331907
3.90061e-05
-0.00132727
-0.0327499
-1.02074e-06
3.09289e-06
-1.0853e-07
1.49218e-08
-2.33679e-06
4.15835e-06
-0.00263987
-0.050102
-0.000616469
9.0951e-05
2.28112e-07
4.86702e-09
-2.9593e-09
-1.76784e-07
3.81682e-08
2.32351e-06
-0.000109675
7.56152e-06
-0.000805189
0.00945446
1.03294e-08
-0.00503296
-0.0154263
0.00437401
0.0113557
0.0231878
0.0179878
-0.0194527
-0.0267988
0.119778
0.0338085
0.224665
-0.00728515
0.00780227
-0.00383028
0.018962
-0.0115728
0.0421046
-0.0778497
0.37891
0.497819
0.241149
0.0108025
0.00467573
0.00202357
0.00904439
0.00341443
-0.00278609
0.00357374
0.00482714
0.0156302
0.010155
0.00577907
3.32827e-07
2.01672e-06
2.95759e-09
3.99583e-08
5.66442e-06
-7.00163e-05
2.88413e-07
1.127e-06
4.72262e-08
6.50702e-09
-0.000101851
-2.63909e-06
-0.000890948
-0.0010465
0.00145466
2.28159e-07
-1.45881e-07
5.01843e-08
6.56271e-09
-0.00010332
-1.76576e-05
0.00103517
0.00729896
0.00385304
3.09906e-08
-2.82703e-09
4.39872e-07
2.791e-06
2.82252e-06
-0.00102758
0.00494445
-0.000142686
2.91006
3.45849
0.208114
1.97028
3.84061
4.18408
4.44521
3.11855
3.62549
2.38816
0.331819
4.4439
4.0225
4.5719
4.61248
2.00987
2.00068
3.84118
3.40189
1.1203
-0.0419877
2.24082
3.09129
4.17695
4.33304
1.98486
1.87951
0.900255
1.62197
0.348719
0.0813328
4.59978
-0.00179485
-3.10668e-10
0
-7.86534e-06
6.33123e-05
1.87959e-07
1.83409e-07
1.07546e-08
8.87473e-10
2.75321e-10
0
-3.66346e-05
0.000142636
7.41643e-07
5.94991e-06
-1.08054e-07
-1.80561e-08
4.9044e-09
4.12413e-10
4.34094e-06
5.06027e-07
5.21014e-08
8.74677e-06
-0.000355266
-1.38121e-09
-3.29574e-10
3.18764e-08
-3.67911e-10
-1.99915e-07
-3.88395e-06
4.4564e-05
-0.000202544
0.000598921
-0.000847536
-0.000185982
-0.00485084
0.0863626
0.00324064
0.00270074
0.000762624
-0.00014705
0.0109116
0.458516
1.76046
-0.0180799
-0.0514871
-0.00299936
0.00378302
1.10383
0.192442
3.20633
2.45943
1.70087
4.00936
3.75587
4.3735
0.00421775
0.0135144
0.592062
0.106539
1.29763
1.45887
1.19139
2.13345
1.34741e-07
1.26458e-08
3.15376e-08
5.81889e-07
4.18021e-06
1.6154e-07
7.78698e-08
1.2364e-06
2.15574e-06
4.87347e-06
-2.26685e-06
-7.07165e-06
3.33425e-10
1.1511e-05
7.96495e-06
-1.72581e-05
-1.64665e-05
4.54459e-09
2.19384e-09
6.37972e-09
8.08229e-08
2.42079e-10
4.91935e-07
1.69511e-07
-8.87257e-06
1.87186e-06
2.16537e-08
2.43833e-07
8.97379e-07
-1.88193e-06
4.57066e-07
6.72125e-07
5.24383e-06
-1.21731e-05
3.02234e-06
7.51818e-06
-9.75176e-06
1.91303e-05
-5.82567e-05
3.12965e-05
1.00678e-05
0.000487984
-0.000115599
6.83736e-05
0.000217045
0.00280622
-4.53958e-05
-1.72071e-05
1.80644e-05
0.00158886
0.000150978
9.37942e-06
1.52027e-06
2.45954e-06
1.90767e-06
0.000133711
0.000660749
0.000382452
0.00140368
0.00679936
7.39691e-05
0.00208397
2.37509e-05
7.94474e-05
-0.0014412
-0.006007
-6.68084e-05
0.00574392
0.00608166
-0.00385091
0.00184911
0.00484568
-6.4497e-05
4.60878e-05
-3.5914e-06
0.000243993
0.0178821
0.00712178
0.000492773
0.000598824
0.000177519
0.00292028
0.00444323
0.0110229
0.000891119
-0.000100577
4.38427e-05
0.000631818
0.000212684
1.53519e-05
3.12672e-05
-6.89873e-05
5.33299e-06
-6.81071e-06
3.8328e-05
3.66248e-06
2.67091e-08
-2.68359e-07
2.79496e-09
-2.27293e-10
5.82862e-05
-8.35977e-05
-7.85031e-06
1.35786e-07
5.34163e-05
-5.53297e-05
4.15204e-05
-7.96218e-05
6.75659e-05
5.19396e-05
1.87701e-06
1.8255e-06
-1.17438e-07
1.38174e-05
-4.21722e-06
9.07141e-06
-1.61539e-05
-2.78108e-06
1.19572e-06
-2.34565e-05
2.50422e-05
-4.65048e-07
1.20149e-07
-3.43478e-07
1.51979e-07
-2.0018e-08
-3.25038e-06
5.57215e-07
4.13712
3.48673
4.62907
4.53774
2.46788
1.15734
0.225009
-0.00261636
4.55282
4.66047
4.42321
4.68142
4.58035
4.64869
3.86311
1.59341
0.000293663
4.49842
4.45268
4.19722
3.41256
0.0129829
-0.00167171
1.88974
0.31887
1.75719
0.933518
2.3527
2.28596
-0.00146626
0.287141
0.00916265
-0.000775723
-0.00195993
0.0719685
-0.000122285
0.000511276
-0.000302977
-0.000179819
9.68661e-05
-2.20712e-05
-1.93857e-05
-0.000490797
-7.51961e-05
-6.64447e-05
-0.000110073
-5.37783e-05
8.84884e-05
-0.00102318
0.00197228
-0.000535243
0.000346134
1.49982e-05
-1.95719e-05
-6.50237e-06
-6.70564e-05
-0.000277724
-0.000103596
0.000825618
-0.000740015
1.98096e-06
-2.46935e-05
9.97674e-05
-1.95456e-05
4.4159
3.61014
4.64635
4.60793
4.64568
4.60557
3.36814
4.64656
4.62438
4.58469
4.64341
4.22571
2.81034
3.09579
3.68345
1.22591
0.197158
4.15507
3.00921
4.13091
4.60356
4.65097
4.6481
4.6167
3.0256
4.26043
4.65175
4.64725
4.41234
4.6462
4.62326
3.78098
0.301593
2.0612
0.00070181
0.000356561
0.00150002
0.000121692
-0.00202321
0.00463239
0.596788
0.000820505
0.000300428
0.00108842
-0.00543379
4.08531
1.85051
0.0018483
-0.00243216
0.00422257
1.98095
4.05872
0.0039143
0.000501524
0.0191174
0.000132386
0.000219626
-0.000858618
-0.000411768
-7.21231e-05
5.73995e-06
-0.00166948
0.000295433
7.15265e-06
2.41495
3.70791
8.74605e-05
0.648953
4.42371
4.64304
2.87009
4.00533
1.22329
0.0920239
4.64815
4.55363
4.64943
4.64321
4.64701
4.61571
4.64827
4.64115
4.64319
4.44752
0.624072
-0.00151946
2.4069
3.73711
4.57925
4.47433
2.6638
3.86774
4.64898
0.930525
0.0549032
4.64007
-0.0221599
-0.00934935
4.24724
1.49067
-0.00337494
-0.000421775
0.000135404
-0.000306121
0.000957329
0.00392861
0.0990193
0.00666742
2.2409
4.07162
-0.00448902
-0.00408754
0.674952
3.58745
-0.000976078
-0.00353665
-0.000115967
-9.04179e-05
0.00019955
0.000335456
0.000483467
0.00136819
2.01779
4.29974
0.00690554
-0.00560311
-0.000215466
0.000120712
-0.000767891
-0.000111875
0.427289
0.000278532
0.000125153
0.129064
0.019365
0.00456403
0.000938092
0.00832686
1.39585e-05
1.64177e-05
0.00128683
0.00555902
0.000141299
-2.03245e-05
-7.22542e-05
-0.000137279
7.06698e-05
0.690292
3.77939e-05
3.64916e-06
0.000165346
0.000448725
3.1291e-06
2.03613e-06
0.00662652
3.65043e-05
1.58407e-05
2.24324e-06
3.9887e-07
8.21497e-07
2.68746
0.00962391
0.014663
1.34389
0.969451
3.65079
3.40929
3.83665
3.4458
2.65811
1.85462
-0.00481614
-0.0133596
1.1383
2.45778
0.23377
0.340446
0.168874
0.0351157
1.54955
0.010969
0.00521168
0.00969441
0.422761
-0.00212945
-0.00312127
-0.000396083
-7.68022e-06
6.23341e-05
0.00375593
-0.000123721
1.06636e-05
0.606279
2.75732
3.36374
0.606728
1.69703
3.74693
4.14095
4.50778
4.63121
3.83179
4.35866
2.41419
4.6604
4.6333
4.64667
4.64721
0.0282895
-0.0025457
0.263106
1.27752
4.50497
4.65745
2.9075
4.00184
0.0667514
0.27199
0.0149221
0.00209693
4.53923
3.9904
0.986911
2.54539
4.61807
4.62867
4.64162
4.64687
4.61087
4.62772
4.46812
3.84198
2.7284
1.47116
0.669028
4.45659
3.27575
4.07009
1.87255
0.44231
4.62262
4.60079
4.57799
4.41925
3.6893
3.96378
4.0412
3.72921
4.66515
4.4681
4.41297
4.55907
4.61212
4.41498
4.63055
4.51584
1.22996
0.244779
1.25065
2.84665
0.124019
0.0566636
-0.0151052
-0.0106591
0.481011
1.08449
0.204939
0.1953
0.000351591
0.00481716
-0.0956631
0.00373694
0.00138651
9.78436e-05
-0.0091797
0.0131181
0.00375628
4.15505
0.707985
3.82971
1.78971
3.18469
2.60752
4.55069
3.67576
4.16376
4.35543
4.64795
2.14547
1.71509
2.46407
2.14735
2.31093
2.48638
4.4836
4.63779
1.74362
0.543987
3.29083
4.05432
3.53217
3.93236
3.95729
3.06579
4.29841
4.22139
4.4836
4.43405
2.63906
2.35179
3.40695
4.163
2.17948
0.031312
0.0121941
0.75335
0.20467
0.847489
2.38255
1.56899
3.58458e-05
0.000667951
2.47303e-06
-1.05828e-05
-0.00565
-0.017839
-0.00815117
1.41359e-05
-0.000123154
-3.19894e-06
4.6742e-08
-0.015297
-0.00639857
-0.0274164
-0.0465169
0.0941435
0.414379
-0.00362362
0.00691554
-1.43369e-05
7.21457e-06
0.000388483
-0.0033494
-0.000468306
0.0355267
-0.0688771
-0.100524
0.00134863
-0.0193167
0.000226682
2.23923e-05
0.00449943
-0.00436876
0.00175772
0.0585384
-0.00712931
0.00475937
0.00416024
0.00590868
0.00467775
0.00738555
0.0109475
0.00984512
0.078446
-0.000692212
0.00949519
0.00356033
0.00267004
-0.0953762
0.0290772
0.124961
0.024205
0.0651163
0.00471735
0.0165405
0.0448013
-0.0210879
1.05894
1.12959
0.839627
0.656929
-0.181578
0.653029
-0.0516745
3.55791
4.06022
4.18276
1.62691
4.67019
4.64756
4.61442
4.51008
3.56658
4.31696
4.55245
3.50164
4.64311
4.655
4.63398
4.61692
1.20338
0.110295
4.58043
4.06003
2.90666
4.65277
4.42478
4.65854
3.98305
3.49348
4.5527
4.31947
4.62843
4.64549
4.63581
4.23479
0.91337
0.00507554
-0.000215256
9.65431e-05
6.7674e-05
-0.000844512
2.54358
0.000540283
0.000144058
-7.82955e-05
0.000119901
0.000350198
-0.000603575
0.000180467
0.00132996
-0.0061583
0.000481931
0.228619
2.83047
-0.00202152
0.00297666
0.00503767
-0.000903132
-0.000191359
-0.000120722
0.147582
0.00228067
0.00387398
0.000305084
-0.000184026
0.000111961
-0.000247049
0.590195
0.265815
0.542019
0.645726
0.0433915
0.019891
0.0266383
-0.0164196
0.00443147
0.0090955
0.000279419
0.00331512
-6.12873e-05
4.64347
4.66022
0.000936509
-0.000303092
0.000303751
4.47066
4.30337
4.32969
4.65325
4.55063
3.15373
4.28458
1.28509
0.150927
3.50308
-0.0327224
0.0112971
1.69124
0.0718541
2.66092e-05
0.000152413
0.000423331
-7.76662e-05
-4.38142e-05
6.36101e-05
-2.67658e-06
0.000128659
-7.38839e-05
1.382e-05
2.79391e-06
1.37638e-05
9.26341e-06
5.03461e-07
0.00052342
-0.000170888
0.000444705
-0.00112332
6.50689e-05
2.21386e-05
1.72884e-05
-5.36709e-06
-8.38187e-07
-2.59633e-07
3.59551e-05
-0.000624822
3.40032e-05
-1.69451e-05
0.000133392
1.07087e-05
9.04139e-06
-5.60364e-05
0.000354537
0.000151897
0.00017768
-4.81822e-05
0.853828
1.70828
-0.000907571
0.00266137
0.00360069
0.0353127
0.124354
0.305908
0.138051
0.0554723
0.000504858
0.00164191
-0.000115637
0.0115917
0.0173874
0.000265848
0.00917604
0.00183005
1.1913e-05
0.0397609
0.0121323
0.000318384
0.000938295
0.00186262
-0.0033353
6.35195e-05
-0.0443111
0.00980605
1.15687e-07
-0.000820062
-0.00021187
7.58911e-06
-1.8838e-06
-2.97132e-05
0.000213862
-0.000296868
0.00110108
-6.96148e-06
-1.75747e-05
-1.10668e-05
1.48574e-05
6.58305e-05
-2.00815e-05
-6.15373e-05
9.3457e-05
0.000114738
7.88675e-05
-4.83013e-06
3.75252e-05
-4.68964e-05
-3.28378e-06
8.32614e-07
9.11979e-05
-3.83377e-05
9.83123e-06
2.16458e-05
-2.03791e-05
3.21619e-06
5.5892e-08
5.2e-08
0.0050452
0.00180577
0.00276095
0.0043427
0.00183839
0.000638887
0.000188492
-9.21663e-05
-3.60698e-05
2.04373e-05
0.000488692
6.26644e-05
3.32613e-06
8.04066e-06
-7.75227e-06
2.72117e-06
0.0312333
0.0212557
0.0223917
0.00607954
-8.91159e-05
-1.35316e-05
0.000620436
-0.000474301
0.0337156
0.0090006
0.0626387
0.00538446
-1.32164e-06
0.000326436
0.00169347
0.00107942
-3.38817e-06
1.02154e-05
-2.22465e-05
-2.49497e-06
5.4551e-07
1.43182e-06
7.05175e-07
-1.00106e-06
-1.87561e-06
3.86909e-07
-7.82092e-08
-3.30977e-09
-0.000233492
-1.49797e-07
-1.41988e-07
-1.14406e-08
1.17324e-08
0.000220373
-0.000174709
-0.000236789
-0.000365234
-0.00016695
1.88641e-05
-0.000104077
-1.6682e-06
2.90387e-06
2.11666e-05
3.16804e-06
6.52499e-07
-4.29404e-08
3.38396e-05
-3.55041e-07
