# vtk DataFile Version 2.0
Unstructured Grid by M++
ASCII
DATASET UNSTRUCTURED_GRID
POINTS 1089 float
  0.968750   0.906250 0
  0.968750   0.937500 0
  1.000000   0.906250 0
  1.000000   0.937500 0
  1.000000   0.968750 0
  0.906250   0.906250 0
  0.906250   0.875000 0
  0.906250   0.812500 0
  0.906250   0.843750 0
  0.937500   0.906250 0
  0.937500   0.937500 0
  0.937500   0.843750 0
  0.937500   0.875000 0
  0.968750   0.875000 0
  0.968750   0.656250 0
  0.968750   0.687500 0
  1.000000   0.656250 0
  1.000000   0.625000 0
  1.000000   0.687500 0
  0.906250   0.656250 0
  0.906250   0.687500 0
  0.906250   0.625000 0
  0.906250   0.531250 0
  0.906250   0.562500 0
  0.906250   0.593750 0
  0.937500   0.656250 0
  0.937500   0.687500 0
  0.937500   0.531250 0
  0.937500   0.562500 0
  0.937500   0.593750 0
  0.937500   0.625000 0
  0.968750   0.625000 0
  0.968750   0.593750 0
  1.000000   0.593750 0
  0.968750   0.562500 0
  1.000000   0.562500 0
  1.000000   0.531250 0
  0.968750   0.531250 0
  0.781250   1.000000 0
  0.812500   0.781250 0
  0.812500   0.812500 0
  0.875000   0.843750 0
  0.875000   0.812500 0
  0.875000   0.875000 0
  0.781250   0.781250 0
  0.843750   0.843750 0
  0.843750   0.812500 0
  0.875000   0.781250 0
  0.843750   0.781250 0
  0.781250   0.750000 0
  0.781250   0.718750 0
  0.781250   0.687500 0
  0.812500   0.750000 0
  0.812500   0.718750 0
  0.812500   0.531250 0
  0.812500   0.687500 0
  0.812500   0.656250 0
  0.812500   0.562500 0
  0.812500   0.593750 0
  0.812500   0.625000 0
  0.875000   0.687500 0
  0.875000   0.656250 0
  0.875000   0.593750 0
  0.875000   0.562500 0
  0.875000   0.625000 0
  0.781250   0.531250 0
  0.781250   0.562500 0
  0.781250   0.625000 0
  0.781250   0.593750 0
  0.781250   0.656250 0
  0.843750   0.656250 0
  0.843750   0.593750 0
  0.843750   0.562500 0
  0.843750   0.625000 0
  0.843750   0.687500 0
  0.843750   0.750000 0
  0.875000   0.531250 0
  0.843750   0.531250 0
  0.656250   0.906250 0
  0.656250   0.937500 0
  0.656250   1.000000 0
  0.656250   0.968750 0
  0.687500   1.000000 0
  0.687500   0.968750 0
  0.687500   0.937500 0
  0.718750   0.937500 0
  0.718750   0.968750 0
  0.718750   1.000000 0
  0.656250   0.781250 0
  0.656250   0.812500 0
  0.656250   0.843750 0
  0.656250   0.875000 0
  0.750000   0.968750 0
  0.750000   1.000000 0
  0.750000   0.656250 0
  0.750000   0.625000 0
  0.687500   0.656250 0
  0.687500   0.687500 0
  0.687500   0.625000 0
  0.718750   0.656250 0
  0.718750   0.687500 0
  0.718750   0.718750 0
  0.656250   0.531250 0
  0.656250   0.562500 0
  0.656250   0.656250 0
  0.656250   0.687500 0
  0.656250   0.750000 0
  0.656250   0.718750 0
  0.656250   0.625000 0
  0.656250   0.593750 0
  0.750000   0.687500 0
  0.750000   0.718750 0
  0.750000   0.750000 0
  0.687500   0.531250 0
  0.687500   0.562500 0
  0.687500   0.593750 0
  0.718750   0.625000 0
  0.750000   0.531250 0
  0.718750   0.531250 0
  0.750000   0.562500 0
  0.718750   0.562500 0
  0.718750   0.593750 0
  0.750000   0.593750 0
  0.562500   1.000000 0
  0.562500   0.968750 0
  0.562500   0.937500 0
  0.562500   0.906250 0
  0.562500   0.812500 0
  0.562500   0.843750 0
  0.562500   0.875000 0
  0.625000   0.937500 0
  0.625000   0.906250 0
  0.562500   0.781250 0
  0.625000   0.875000 0
  0.531250   1.000000 0
  0.531250   0.968750 0
  0.531250   0.937500 0
  0.531250   0.812500 0
  0.531250   0.875000 0
  0.531250   0.843750 0
  0.531250   0.906250 0
  0.593750   0.906250 0
  0.593750   0.843750 0
  0.593750   0.875000 0
  0.593750   0.812500 0
  0.625000   0.843750 0
  0.625000   0.812500 0
  0.593750   0.937500 0
  0.625000   1.000000 0
  0.593750   1.000000 0
  0.593750   0.968750 0
  0.625000   0.968750 0
  0.625000   0.781250 0
  0.593750   0.781250 0
  0.562500   0.531250 0
  0.562500   0.750000 0
  0.562500   0.718750 0
  0.562500   0.687500 0
  0.562500   0.656250 0
  0.562500   0.562500 0
  0.562500   0.593750 0
  0.562500   0.625000 0
  0.625000   0.687500 0
  0.625000   0.656250 0
  0.625000   0.593750 0
  0.625000   0.562500 0
  0.625000   0.625000 0
  0.531250   0.531250 0
  0.531250   0.750000 0
  0.531250   0.718750 0
  0.531250   0.687500 0
  0.531250   0.562500 0
  0.531250   0.625000 0
  0.531250   0.593750 0
  0.531250   0.656250 0
  0.593750   0.656250 0
  0.593750   0.593750 0
  0.593750   0.562500 0
  0.593750   0.625000 0
  0.593750   0.687500 0
  0.625000   0.750000 0
  0.593750   0.750000 0
  0.593750   0.718750 0
  0.625000   0.718750 0
  0.625000   0.531250 0
  0.593750   0.531250 0
  0.968750   0.406250 0
  0.968750   0.437500 0
  0.968750   0.468750 0
  0.968750   0.500000 0
  1.000000   0.406250 0
  1.000000   0.375000 0
  1.000000   0.437500 0
  1.000000   0.468750 0
  1.000000   0.500000 0
  0.906250   0.500000 0
  0.906250   0.406250 0
  0.906250   0.437500 0
  0.906250   0.281250 0
  0.906250   0.312500 0
  0.906250   0.343750 0
  0.906250   0.375000 0
  0.937500   0.406250 0
  0.937500   0.500000 0
  0.937500   0.468750 0
  0.937500   0.437500 0
  0.937500   0.281250 0
  0.937500   0.312500 0
  0.937500   0.343750 0
  0.937500   0.375000 0
  0.968750   0.375000 0
  1.000000   0.281250 0
  0.968750   0.281250 0
  1.000000   0.312500 0
  0.968750   0.312500 0
  0.968750   0.343750 0
  1.000000   0.343750 0
  0.968750   0.125000 0
  0.968750   0.156250 0
  0.968750   0.187500 0
  1.000000   0.000000 0
  1.000000   0.156250 0
  1.000000   0.125000 0
  1.000000   0.187500 0
  1.000000   0.218750 0
  0.531250   0.781250 0
  1.000000   0.250000 0
  0.906250   0.250000 0
  0.906250   0.218750 0
  0.937500   0.250000 0
  0.937500   0.218750 0
  0.968750   0.250000 0
  0.906250   0.031250 0
  0.906250   0.000000 0
  0.906250   0.062500 0
  0.906250   0.093750 0
  0.906250   0.125000 0
  0.937500   0.156250 0
  0.937500   0.031250 0
  0.937500   0.000000 0
  0.937500   0.062500 0
  0.937500   0.093750 0
  0.937500   0.125000 0
  1.000000   0.031250 0
  0.968750   0.031250 0
  0.968750   0.000000 0
  1.000000   0.062500 0
  0.968750   0.062500 0
  0.968750   0.093750 0
  1.000000   0.093750 0
  0.781250   0.312500 0
  0.781250   0.343750 0
  0.812500   0.500000 0
  0.812500   0.468750 0
  0.812500   0.437500 0
  0.812500   0.281250 0
  0.812500   0.312500 0
  0.812500   0.343750 0
  0.812500   0.375000 0
  0.875000   0.281250 0
  0.875000   0.406250 0
  0.875000   0.343750 0
  0.875000   0.312500 0
  0.875000   0.375000 0
  0.843750   0.281250 0
  0.843750   0.312500 0
  0.843750   0.375000 0
  0.843750   0.343750 0
  0.781250   0.500000 0
  0.781250   0.468750 0
  0.781250   0.437500 0
  0.781250   0.406250 0
  0.875000   0.500000 0
  0.843750   0.500000 0
  0.843750   0.468750 0
  0.875000   0.468750 0
  0.781250   0.281250 0
  0.843750   0.218750 0
  0.843750   0.250000 0
  0.843750   0.187500 0
  0.843750   0.156250 0
  0.875000   0.218750 0
  0.875000   0.250000 0
  0.875000   0.187500 0
  0.812500   0.062500 0
  0.812500   0.250000 0
  0.812500   0.218750 0
  0.812500   0.187500 0
  0.812500   0.156250 0
  0.812500   0.125000 0
  0.843750   0.093750 0
  0.843750   0.062500 0
  0.875000   0.125000 0
  0.875000   0.093750 0
  0.875000   0.062500 0
  0.781250   0.250000 0
  0.781250   0.218750 0
  0.781250   0.187500 0
  0.093750   0.937500 0
  0.125000   1.000000 0
  0.937500   0.718750 0
  0.250000   0.000000 0
  0.093750   0.968750 0
  0.125000   0.968750 0
  0.000000   0.718750 0
  0.000000   0.750000 0
  0.125000   0.531250 0
  0.125000   0.562500 0
  0.093750   0.531250 0
  0.031250   0.750000 0
  0.125000   0.468750 0
  0.156250   0.468750 0
  0.500000   0.375000 0
  0.156250   0.500000 0
  0.406250   0.406250 0
  0.406250   0.437500 0
  0.406250   0.500000 0
  0.406250   0.468750 0
  0.406250   0.375000 0
  0.750000   0.312500 0
  0.437500   0.406250 0
  0.437500   0.500000 0
  0.437500   0.468750 0
  0.437500   0.437500 0
  0.468750   0.437500 0
  0.468750   0.468750 0
  0.406250   0.281250 0
  0.406250   0.312500 0
  0.062500   0.375000 0
  0.406250   0.343750 0
  0.062500   0.406250 0
  0.500000   0.468750 0
  0.500000   0.500000 0
  0.437500   0.281250 0
  0.437500   0.312500 0
  0.437500   0.343750 0
  0.093750   0.406250 0
  0.437500   0.375000 0
  0.093750   0.437500 0
  0.468750   0.375000 0
  0.125000   0.437500 0
  0.500000   0.281250 0
  0.468750   0.281250 0
  0.500000   0.312500 0
  0.468750   0.312500 0
  0.468750   0.343750 0
  0.500000   0.343750 0
  0.843750   0.906250 0
  0.156250   0.187500 0
  0.468750   0.187500 0
  0.468750   0.218750 0
  0.468750   0.250000 0
  0.406250   0.031250 0
  0.750000   0.812500 0
  0.062500   0.093750 0
  0.406250   0.000000 0
  0.750000   0.781250 0
  0.062500   0.062500 0
  0.500000   0.187500 0
  0.500000   0.218750 0
  0.500000   0.250000 0
  0.437500   0.031250 0
  0.781250   0.812500 0
  0.093750   0.093750 0
  0.437500   0.000000 0
  0.437500   0.062500 0
  0.781250   0.843750 0
  0.093750   0.125000 0
  0.406250   0.187500 0
  0.406250   0.250000 0
  0.406250   0.218750 0
  0.437500   0.250000 0
  0.437500   0.218750 0
  0.437500   0.187500 0
  0.500000   0.000000 0
  0.500000   0.031250 0
  0.468750   0.031250 0
  0.468750   0.000000 0
  0.500000   0.062500 0
  0.468750   0.062500 0
  0.812500   0.843750 0
  0.125000   0.125000 0
  0.812500   0.875000 0
  0.125000   0.156250 0
  0.500000   0.093750 0
  0.843750   0.875000 0
  0.156250   0.156250 0
  1.000000   1.000000 0
  0.312500   0.281250 0
  0.656250   0.218750 0
  0.437500   0.156250 0
  0.312500   0.500000 0
  0.437500   0.125000 0
  0.312500   0.468750 0
  0.437500   0.093750 0
  0.781250   0.031250 0
  0.312500   0.437500 0
  0.312500   0.406250 0
  0.312500   0.312500 0
  0.312500   0.343750 0
  0.312500   0.375000 0
  0.375000   0.437500 0
  0.375000   0.406250 0
  0.375000   0.343750 0
  0.718750   0.281250 0
  0.375000   0.375000 0
  0.968750   1.000000 0
  0.281250   0.281250 0
  0.406250   0.156250 0
  0.281250   0.500000 0
  0.406250   0.125000 0
  0.281250   0.468750 0
[...]
CELL_DATA 1024
SCALARS scalar_value float 1
LOOKUP_TABLE default
-0.0573789
-0.00184311
-0.0240381
-0.0350566
-0.000565946
7.4158e-05
3.04124e-06
-0.0390263
-0.00104435
-0.0186673
-0.00515591
6.18042e-05
-0.000453551
3.04549e-06
-1.85864e-06
9.77517e-05
-0.000609463
0.0151533
0.0368188
-0.0395787
-0.00110838
3.78691e-06
1.77737e-08
-1.56337e-07
2.95873e-06
-3.11191e-06
9.08019e-06
-0.00993072
0.000198269
0.0239808
-0.126141
-1.90347e-06
0.0162528
-0.00167075
0.00147154
0.000160758
0.0551388
0.025501
0.0137783
-0.0119666
0.0550151
0.00766615
0.146703
0.0238151
0.0146203
0.0301491
0.0200409
0.0382283
0.163724
0.00412418
0.0260544
-0.0292182
0.0479081
-0.000380822
0.0116159
-5.20963e-05
0.0120158
0.00991051
0.0207268
0.00337447
0.00955229
0.0280759
0.0240824
-0.000264157
4.98931e-06
2.9673e-05
-5.59255e-08
2.44097e-07
-6.12181e-05
-0.00199696
4.63882e-06
2.98162e-05
3.91238e-07
-1.18745e-08
-0.00146422
4.02985e-05
-0.00438073
0.00248484
0.0323755
5.29866e-06
1.96409e-05
1.86653e-07
-1.16301e-07
-0.00103027
-0.000101434
0.0124206
0.0880635
0.358311
3.45426e-07
-7.77297e-08
6.53383e-06
2.48046e-05
-0.000206822
0.0149705
0.047477
-0.0012834
3.17325
3.4287
1.37634
2.64443
4.04085
4.40228
4.53231
3.69011
4.07589
3.16189
2.08564
4.5711
4.33018
4.68089
4.5369
0.172133
0.198614
2.63928
1.67529
1.62768
0.731275
1.77131
1.514
2.89892
3.04906
0.0428431
-0.00927161
0.48116
0.107552
0.711449
0.35083
4.53573
0.937155
9.00194e-07
3.83885e-08
2.8271e-05
-0.00754007
0.000149632
-1.59095e-05
3.74682e-06
4.2701e-06
-1.3022e-08
1.47696e-07
0.0101085
0.419272
1.88176e-05
0.000362866
1.61853e-06
1.1011e-06
-9.66428e-07
-1.25902e-07
0.000412905
2.7236e-05
-2.91127e-06
0.00108639
-0.013712
-2.05395e-07
-2.16231e-08
-7.15296e-06
-1.90151e-06
0.000177875
0.00262811
-0.00997817
1.14064
0.937857
0.00218028
-0.0118862
0.416546
0.877967
0.0594407
-0.0195272
-0.0178111
0.00125021
0.953549
1.78695
3.19555
0.863089
0.494149
1.44206
1.14297
3.43022
2.78693
4.47334
4.15587
3.8252
4.57557
4.41413
4.67472
3.00457
2.75977
3.6981
3.20682
4.05538
3.71033
3.00928
3.39874
0.000111559
5.82432e-06
4.85478e-05
0.000248284
0.000141026
0.000112492
1.07559e-05
3.42425e-06
-5.55847e-05
3.23168e-05
5.36167e-05
-4.25785e-05
2.68559e-07
0.000105218
2.01516e-05
4.64478e-05
-1.19985e-05
9.47348e-06
6.68601e-07
1.42019e-05
1.20895e-05
4.06443e-06
-7.31273e-06
-4.44022e-06
0.00354038
-5.04536e-06
2.84827e-05
2.12601e-05
7.9647e-06
-5.46381e-05
1.34454e-06
5.71746e-06
-2.69292e-06
0.00012162
-6.83369e-05
-6.23794e-06
0.00033838
-6.09512e-05
0.000476973
-1.20842e-06
-2.19384e-05
0.00169939
0.00182079
0.000496485
0.000132568
0.00283886
0.00225569
0.00239692
0.00632348
0.00176903
-0.0129732
0.000117099
-7.15439e-05
0.000136318
0.000476928
0.00187444
-0.00348626
-0.00157614
-0.00518355
-0.022096
-0.000925111
0.00116417
0.000251447
-0.000108916
0.0127123
0.00643288
0.000181378
-0.00040916
0.00024386
0.00519978
0.00052735
0.00121644
-6.53816e-06
6.34053e-06
1.85175e-06
4.38913e-05
0.00926106
0.00607969
5.33303e-05
9.46492e-05
3.78276e-05
0.000873733
0.00165776
0.00353539
0.000187619
-0.000210177
2.17641e-05
0.000235081
-3.36366e-05
-3.90653e-06
-1.04563e-06
2.21229e-05
8.19582e-08
2.4396e-06
3.65387e-06
-4.81025e-06
-3.08224e-09
-3.15213e-08
-1.80044e-09
2.71355e-10
-1.98259e-05
8.18568e-05
6.75208e-06
-7.8454e-07
-5.14676e-06
-2.91774e-06
1.75336e-05
-3.47984e-05
3.74896e-05
-1.86594e-05
1.00692e-06
7.34253e-06
-2.91278e-06
-6.43543e-06
1.97496e-05
9.65514e-07
-4.18638e-07
-5.3229e-07
2.10907e-07
2.58756e-06
-1.00347e-06
-4.18801e-08
-3.23484e-08
9.38188e-08
-2.59782e-07
7.26515e-09
-6.66534e-07
3.97472e-07
2.08228
1.26867
3.95556
3.04064
0.703166
0.234133
0.00602224
-0.00107373
4.63303
4.64574
4.47796
4.53924
4.20298
4.59667
2.22788
0.141079
-0.00018581
2.99699
3.26653
1.68027
0.267868
0.000575616
-0.000577014
0.0268831
0.0285145
-0.0025971
-0.00539324
0.014711
0.133892
0.000330615
-0.000217148
0.000877166
-0.000574125
0.000133156
-0.00163259
-5.95773e-05
-5.45856e-05
-1.45248e-05
-6.61024e-05
6.2204e-05
-3.82153e-05
3.93358e-06
-8.87624e-05
-9.68741e-05
5.30503e-05
-4.11151e-05
3.48284e-05
1.30427e-05
-0.0003465
0.000468757
-0.000212192
0.000168533
-1.76891e-06
-2.99085e-07
-1.32154e-05
-4.61014e-05
0.000110384
-7.0812e-05
-0.000112246
9.25314e-05
-8.95998e-07
1.45863e-06
-9.73569e-07
-4.28776e-06
4.61719
4.28032
4.6527
4.42543
4.64398
4.63949
4.11875
4.66008
4.46091
4.62421
4.63806
4.40273
3.93395
3.9338
4.10913
1.8632
0.92682
4.35372
3.39055
4.51882
4.64894
4.64998
4.62114
4.25357
0.702203
3.06834
4.64995
4.65043
3.95906
4.62624
4.43436
2.50996
0.0108472
0.689147
-0.000783903
-0.000283391
-0.00117972
-0.000798267
-0.00234089
-0.00253188
0.00163082
-0.000648144
-0.000184881
-0.000789338
0.000736611
3.13489
0.361911
-0.00119187
0.000297142
0.00870555
0.406748
3.14449
-0.00315588
-0.000819867
0.00862556
1.34218e-05
-0.00018673
0.000546766
0.000349853
4.02374e-06
-5.53267e-05
0.00072173
-0.000358902
-0.00021218
2.75766
3.90633
0.0312838
1.02409
4.50994
4.6528
3.18904
4.17459
1.70959
0.28136
4.65322
4.60346
4.65113
4.64673
4.6506
4.47356
4.64779
4.58227
4.64934
4.52703
0.979878
0.0279182
2.74552
3.93175
4.40556
4.5552
3.11398
4.10429
4.64257
1.51449
0.210349
4.60662
0.0134139
0.00710687
3.35144
0.230994
0.00189736
0.000278725
-0.000116294
0.000103131
-0.00046362
-0.00269725
0.000586621
-0.00539817
0.592126
3.25443
-0.00129263
0.00157194
0.00502191
1.99307
0.00115223
0.00334368
0.000181208
0.000133281
-0.000396388
-0.000284771
-0.00024933
-0.00171838
0.610002
3.6288
0.00794065
0.00302182
4.97024e-05
-0.00016154
0.00238476
0.00240714
2.56241
0.337275
0.101745
2.03782
1.35419
0.844047
0.584998
-0.00465244
0.000618255
-0.00392636
0.00198423
-0.00823348
0.00144414
-0.00808134
0.000389338
0.000223885
0.000478605
2.84864
-0.000832591
-0.000432212
0.000145956
0.00130658
0.000807575
0.000472457
0.0449942
-3.38005e-05
9.51982e-05
0.000532156
7.8086e-05
0.000357674
3.56595
0.0183692
-0.0163319
3.5897
3.17781
4.18388
3.9696
4.47544
4.63525
4.4685
4.03136
0.271173
0.690321
2.69246
3.56054
1.2576
1.80954
1.14735
1.03233
2.95047
0.181465
-0.0316046
1.02633
2.12598
0.0069711
-0.000281712
0.0213442
0.00317031
-0.00310675
0.0209347
-5.58989e-05
-0.000324264
4.35325
4.66106
4.66376
4.65031
4.65922
4.66162
4.65122
4.63028
4.56937
4.51111
4.62989
4.38803
4.47036
4.62337
4.21902
3.92162
4.32838
3.80269
4.63129
4.7151
4.66494
4.61621
4.67716
4.66669
4.46047
4.71624
3.72457
2.46309
4.66268
4.65945
4.74745
4.6828
4.3193
3.67237
2.96834
3.5278
2.13202
2.50004
0.980536
0.0950994
0.0382173
0.0431548
-0.0298761
0.927413
-0.0478307
0.0273063
-0.00499002
-0.00728684
4.3375
3.61333
2.62371
1.64248
1.47748
2.18828
1.08231
1.08798
4.66777
4.3185
4.31026
4.46293
4.62105
4.37595
4.58171
4.46959
3.65546
3.36015
2.52899
3.2477
0.851947
1.67773
0.44247
0.204089
1.41143
1.80842
1.00269
0.802537
0.0123898
-0.0616038
0.550736
-0.136772
0.000229317
0.00739952
0.60912
-0.00272469
0.0329593
4.12888
1.55113
4.309
2.84567
3.83647
3.899
4.04363
4.1356
4.37447
4.43573
3.15028
0.748982
1.70988
0.453816
0.724641
0.729953
0.458298
0.582248
1.8903
0.0569781
0.0303556
0.000616733
-0.0469113
3.55377
3.58769
0.857372
0.197605
2.05252
3.13904
1.63705
3.14907
0.190148
0.0847955
-0.0118138
0.341456
0.0345727
0.00686606
0.0136753
0.0274848
0.0021307
-0.000705945
0.00182967
-0.00887622
-0.000968961
-0.0287439
0.00053357
-0.00224047
-0.0184547
0.0165156
0.111555
-0.00357183
-0.022765
-0.0005689
9.38568e-05
-0.0638546
-0.0135014
0.0444382
0.131536
0.14749
0.479392
0.073188
-0.0167327
-0.0110588
0.00195217
-0.0271448
-0.0113921
0.0964405
0.0377298
-0.0436661
0.0200051
-0.130951
-0.0802156
-0.00277939
0.00330623
-0.00418359
0.00107513
-0.00166082
0.00052545
0.00966209
0.00220423
0.011453
0.0164289
0.00657507
0.0124942
0.00779267
0.0189
0.0190503
0.0165077
0.00933934
0.0166326
0.0047886
0.0199888
0.0690714
0.0576351
0.0192558
0.00430566
0.00727299
0.00254622
-0.00373373
0.00768474
-0.0471124
-0.0203418
0.137202
0.460857
0.0234583
-0.0320647
-0.0041269
4.10897
4.45822
2.7134
0.142384
4.58942
4.67305
4.6735
4.59152
4.25966
4.5961
4.10341
1.85683
4.6662
4.5994
4.64688
4.63047
1.77409
0.323711
4.64473
4.29348
3.31942
4.65262
3.86915
4.62334
4.19075
3.94865
4.58588
4.43053
4.63071
4.69794
4.36515
3.20948
0.0762657
-0.00562665
0.000155486
-7.61454e-05
-0.000108633
0.000307023
0.568278
-0.000388335
-8.77333e-06
-2.68703e-05
3.70044e-05
-0.000395113
-2.17155e-05
-0.00123061
-0.000192525
0.0118328
-0.000559673
-0.00667379
0.8934
-0.000118194
-0.0035607
-0.00772036
0.000136227
0.000156702
7.56375e-06
0.000938809
-0.00335248
-0.00398248
-0.00114011
-0.000281892
-0.000127029
0.000107461
0.0177065
-0.0122583
-0.0330484
0.00874239
0.00617179
-0.00153269
0.0135834
0.00939304
-0.000199461
0.000541686
0.00162421
8.96542e-05
0.000492336
4.60361
4.67961
0.000432615
0.000114551
-2.19262e-05
3.31847
2.88373
2.90085
4.44027
4.27722
1.61093
3.36616
0.254073
-0.00608508
1.38494
0.0214812
-0.000472219
0.0501112
-0.043609
-0.000124999
4.92702e-05
-0.000241389
0.000183529
-1.60076e-05
2.39435e-05
-3.33692e-06
1.04369e-05
3.06162e-05
1.58849e-06
9.61336e-06
2.16459e-05
-8.63647e-06
9.58739e-07
-0.000367994
0.000385932
-0.000517333
-0.00327308
0.000127709
-0.000154677
-7.18634e-05
2.1032e-05
5.4875e-08
-8.52009e-08
-0.00027716
0.000244928
0.000336136
-0.000192649
7.2423e-05
3.32311e-05
-4.04167e-06
-4.26615e-05
-4.94323e-05
0.000109094
4.10511e-05
6.23052e-05
0.00755014
0.0301075
-0.000569118
6.36538e-05
0.000274825
0.00245194
-0.00047843
0.000578205
0.00548616
0.000785906
-3.47813e-05
0.00016827
-7.86819e-05
0.000762294
7.00683e-05
0.00037094
0.000406222
3.80061e-05
1.4674e-05
0.00395338
0.000170591
5.19285e-06
-0.000303831
0.000344521
0.00147452
0.000260855
0.00716302
0.00293467
1.09796e-07
-0.000272842
0.000685885
5.12332e-06
5.22798e-06
-1.86113e-05
-3.97597e-05
7.30984e-05
-7.43137e-05
4.58899e-05
8.30643e-06
-8.24443e-07
2.29915e-07
-1.70013e-06
3.33674e-06
2.2002e-05
-1.56695e-05
4.32617e-05
-1.05004e-05
1.61652e-06
1.02935e-05
-1.19151e-05
-1.34734e-06
2.91644e-07
-2.19563e-05
4.77879e-05
1.01009e-06
1.07304e-05
-1.16871e-06
3.16618e-07
1.23849e-08
-1.07692e-07
0.000568737
-4.77537e-05
0.000267037
-0.000227012
-7.04447e-06
1.20495e-05
4.2606e-05
2.26192e-06
-4.30578e-05
-2.74841e-06
2.45713e-06
2.23246e-06
3.84672e-06
6.38503e-07
1.46029e-06
-3.38547e-06
-0.000870305
0.000216328
-0.000111371
0.000255502
6.37932e-05
-0.000127567
-0.000192298
5.62331e-05
-0.000788974
0.000245884
0.000335344
0.00569825
6.08431e-05
-0.000120375
-0.000127295
-0.000414859
1.5904e-06
4.83475e-06
-2.91085e-06
-1.14472e-07
-3.17667e-09
1.20349e-07
1.69065e-06
-7.31452e-07
2.32637e-07
-1.83672e-07
3.68007e-08
2.08198e-09
-3.36886e-05
-9.12235e-09
1.99107e-08
-2.6107e-09
2.15702e-10
1.30766e-06
1.46147e-05
9.9323e-05
1.00213e-05
-5.65844e-06
-8.05014e-07
9.4381e-07
4.83379e-07
-3.08306e-07
-2.33971e-06
1.33651e-06
-1.63246e-07
7.50799e-08
-1.49091e-06
1.23094e-06
