# vtk DataFile Version 2.0
Unstructured Grid by M++
ASCII
DATASET UNSTRUCTURED_GRID
POINTS 1089 float
  0.968750   0.906250 0
  0.968750   0.937500 0
  1.000000   0.906250 0
  1.000000   0.937500 0
  1.000000   0.968750 0
  0.906250   0.906250 0
  0.906250   0.875000 0
  0.906250   0.812500 0
  0.906250   0.843750 0
  0.937500   0.906250 0
  0.937500   0.937500 0
  0.937500   0.843750 0
  0.937500   0.875000 0
  0.968750   0.875000 0
  0.968750   0.656250 0
  0.968750   0.687500 0
  1.000000   0.656250 0
  1.000000   0.625000 0
  1.000000   0.687500 0
  0.906250   0.656250 0
  0.906250   0.687500 0
  0.906250   0.625000 0
  0.906250   0.531250 0
  0.906250   0.562500 0
  0.906250   0.593750 0
  0.937500   0.656250 0
  0.937500   0.687500 0
  0.937500   0.531250 0
  0.937500   0.562500 0
  0.937500   0.593750 0
  0.937500   0.625000 0
  0.968750   0.625000 0
  0.968750   0.593750 0
  1.000000   0.593750 0
  0.968750   0.562500 0
  1.000000   0.562500 0
  1.000000   0.531250 0
  0.968750   0.531250 0
  0.781250   1.000000 0
  0.812500   0.781250 0
  0.812500   0.812500 0
  0.875000   0.843750 0
  0.875000   0.812500 0
  0.875000   0.875000 0
  0.781250   0.781250 0
  0.843750   0.843750 0
  0.843750   0.812500 0
  0.875000   0.781250 0
  0.843750   0.781250 0
  0.781250   0.750000 0
  0.781250   0.718750 0
  0.781250   0.687500 0
  0.812500   0.750000 0
  0.812500   0.718750 0
  0.812500   0.531250 0
  0.812500   0.687500 0
  0.812500   0.656250 0
  0.812500   0.562500 0
  0.812500   0.593750 0
  0.812500   0.625000 0
  0.875000   0.687500 0
  0.875000   0.656250 0
  0.875000   0.593750 0
  0.875000   0.562500 0
  0.875000   0.625000 0
  0.781250   0.531250 0
  0.781250   0.562500 0
  0.781250   0.625000 0
  0.781250   0.593750 0
  0.781250   0.656250 0
  0.843750   0.656250 0
  0.843750   0.593750 0
  0.843750   0.562500 0
  0.843750   0.625000 0
  0.843750   0.687500 0
  0.843750   0.750000 0
  0.875000   0.531250 0
  0.843750   0.531250 0
  0.656250   0.906250 0
  0.656250   0.937500 0
  0.656250   1.000000 0
  0.656250   0.968750 0
  0.687500   1.000000 0
  0.687500   0.968750 0
  0.687500   0.937500 0
  0.718750   0.937500 0
  0.718750   0.968750 0
  0.718750   1.000000 0
  0.656250   0.781250 0
  0.656250   0.812500 0
  0.656250   0.843750 0
  0.656250   0.875000 0
  0.750000   0.968750 0
  0.750000   1.000000 0
  0.750000   0.656250 0
  0.750000   0.625000 0
  0.687500   0.656250 0
  0.687500   0.687500 0
  0.687500   0.625000 0
  0.718750   0.656250 0
  0.718750   0.687500 0
  0.718750   0.718750 0
  0.656250   0.531250 0
  0.656250   0.562500 0
  0.656250   0.656250 0
  0.656250   0.687500 0
  0.656250   0.750000 0
  0.656250   0.718750 0
  0.656250   0.625000 0
  0.656250   0.593750 0
  0.750000   0.687500 0
  0.750000   0.718750 0
  0.750000   0.750000 0
  0.687500   0.531250 0
  0.687500   0.562500 0
  0.687500   0.593750 0
  0.718750   0.625000 0
  0.750000   0.531250 0
  0.718750   0.531250 0
  0.750000   0.562500 0
  0.718750   0.562500 0
  0.718750   0.593750 0
  0.750000   0.593750 0
  0.562500   1.000000 0
  0.562500   0.968750 0
  0.562500   0.937500 0
  0.562500   0.906250 0
  0.562500   0.812500 0
  0.562500   0.843750 0
  0.562500   0.875000 0
  0.625000   0.937500 0
  0.625000   0.906250 0
  0.562500   0.781250 0
  0.625000   0.875000 0
  0.531250   1.000000 0
  0.531250   0.968750 0
  0.531250   0.937500 0
  0.531250   0.812500 0
  0.531250   0.875000 0
  0.531250   0.843750 0
  0.531250   0.906250 0
  0.593750   0.906250 0
  0.593750   0.843750 0
  0.593750   0.875000 0
  0.593750   0.812500 0
  0.625000   0.843750 0
  0.625000   0.812500 0
  0.593750   0.937500 0
  0.625000   1.000000 0
  0.593750   1.000000 0
  0.593750   0.968750 0
  0.625000   0.968750 0
  0.625000   0.781250 0
  0.593750   0.781250 0
  0.562500   0.531250 0
  0.562500   0.750000 0
  0.562500   0.718750 0
  0.562500   0.687500 0
  0.562500   0.656250 0
  0.562500   0.562500 0
  0.562500   0.593750 0
  0.562500   0.625000 0
  0.625000   0.687500 0
  0.625000   0.656250 0
  0.625000   0.593750 0
  0.625000   0.562500 0
  0.625000   0.625000 0
  0.531250   0.531250 0
  0.531250   0.750000 0
  0.531250   0.718750 0
  0.531250   0.687500 0
  0.531250   0.562500 0
  0.531250   0.625000 0
  0.531250   0.593750 0
  0.531250   0.656250 0
  0.593750   0.656250 0
  0.593750   0.593750 0
  0.593750   0.562500 0
  0.593750   0.625000 0
  0.593750   0.687500 0
  0.625000   0.750000 0
  0.593750   0.750000 0
  0.593750   0.718750 0
  0.625000   0.718750 0
  0.625000   0.531250 0
  0.593750   0.531250 0
  0.968750   0.406250 0
  0.968750   0.437500 0
  0.968750   0.468750 0
  0.968750   0.500000 0
  1.000000   0.406250 0
  1.000000   0.375000 0
  1.000000   0.437500 0
  1.000000   0.468750 0
  1.000000   0.500000 0
  0.906250   0.500000 0
  0.906250   0.406250 0
  0.906250   0.437500 0
  0.906250   0.281250 0
  0.906250   0.312500 0
  0.906250   0.343750 0
  0.906250   0.375000 0
  0.937500   0.406250 0
  0.937500   0.500000 0
  0.937500   0.468750 0
  0.937500   0.437500 0
  0.937500   0.281250 0
  0.937500   0.312500 0
  0.937500   0.343750 0
  0.937500   0.375000 0
  0.968750   0.375000 0
  1.000000   0.281250 0
  0.968750   0.281250 0
  1.000000   0.312500 0
  0.968750   0.312500 0
  0.968750   0.343750 0
  1.000000   0.343750 0
  0.968750   0.125000 0
  0.968750   0.156250 0
  0.968750   0.187500 0
  1.000000   0.000000 0
  1.000000   0.156250 0
  1.000000   0.125000 0
  1.000000   0.187500 0
  1.000000   0.218750 0
  0.531250   0.781250 0
  1.000000   0.250000 0
  0.906250   0.250000 0
  0.906250   0.218750 0
  0.937500   0.250000 0
  0.937500   0.218750 0
  0.968750   0.250000 0
  0.906250   0.031250 0
  0.906250   0.000000 0
  0.906250   0.062500 0
  0.906250   0.093750 0
  0.906250   0.125000 0
  0.937500   0.156250 0
  0.937500   0.031250 0
  0.937500   0.000000 0
  0.937500   0.062500 0
  0.937500   0.093750 0
  0.937500   0.125000 0
  1.000000   0.031250 0
  0.968750   0.031250 0
  0.968750   0.000000 0
  1.000000   0.062500 0
  0.968750   0.062500 0
  0.968750   0.093750 0
  1.000000   0.093750 0
  0.781250   0.312500 0
  0.781250   0.343750 0
  0.812500   0.500000 0
  0.812500   0.468750 0
  0.812500   0.437500 0
  0.812500   0.281250 0
  0.812500   0.312500 0
  0.812500   0.343750 0
  0.812500   0.375000 0
  0.875000   0.281250 0
  0.875000   0.406250 0
  0.875000   0.343750 0
  0.875000   0.312500 0
  0.875000   0.375000 0
  0.843750   0.281250 0
  0.843750   0.312500 0
  0.843750   0.375000 0
  0.843750   0.343750 0
  0.781250   0.500000 0
  0.781250   0.468750 0
  0.781250   0.437500 0
  0.781250   0.406250 0
  0.875000   0.500000 0
  0.843750   0.500000 0
  0.843750   0.468750 0
  0.875000   0.468750 0
  0.781250   0.281250 0
  0.843750   0.218750 0
  0.843750   0.250000 0
  0.843750   0.187500 0
  0.843750   0.156250 0
  0.875000   0.218750 0
  0.875000   0.250000 0
  0.875000   0.187500 0
  0.812500   0.062500 0
  0.812500   0.250000 0
  0.812500   0.218750 0
  0.812500   0.187500 0
  0.812500   0.156250 0
  0.812500   0.125000 0
  0.843750   0.093750 0
  0.843750   0.062500 0
  0.875000   0.125000 0
  0.875000   0.093750 0
  0.875000   0.062500 0
  0.781250   0.250000 0
  0.781250   0.218750 0
  0.781250   0.187500 0
  0.093750   0.937500 0
  0.125000   1.000000 0
  0.937500   0.718750 0
  0.250000   0.000000 0
  0.093750   0.968750 0
  0.125000   0.968750 0
  0.000000   0.718750 0
  0.000000   0.750000 0
  0.125000   0.531250 0
  0.125000   0.562500 0
  0.093750   0.531250 0
  0.031250   0.750000 0
  0.125000   0.468750 0
  0.156250   0.468750 0
  0.500000   0.375000 0
  0.156250   0.500000 0
  0.406250   0.406250 0
  0.406250   0.437500 0
  0.406250   0.500000 0
  0.406250   0.468750 0
  0.406250   0.375000 0
  0.750000   0.312500 0
  0.437500   0.406250 0
  0.437500   0.500000 0
  0.437500   0.468750 0
  0.437500   0.437500 0
  0.468750   0.437500 0
  0.468750   0.468750 0
  0.406250   0.281250 0
  0.406250   0.312500 0
  0.062500   0.375000 0
  0.406250   0.343750 0
  0.062500   0.406250 0
  0.500000   0.468750 0
  0.500000   0.500000 0
  0.437500   0.281250 0
  0.437500   0.312500 0
  0.437500   0.343750 0
  0.093750   0.406250 0
  0.437500   0.375000 0
  0.093750   0.437500 0
  0.468750   0.375000 0
  0.125000   0.437500 0
  0.500000   0.281250 0
  0.468750   0.281250 0
  0.500000   0.312500 0
  0.468750   0.312500 0
  0.468750   0.343750 0
  0.500000   0.343750 0
  0.843750   0.906250 0
  0.156250   0.187500 0
  0.468750   0.187500 0
  0.468750   0.218750 0
  0.468750   0.250000 0
  0.406250   0.031250 0
  0.750000   0.812500 0
  0.062500   0.093750 0
  0.406250   0.000000 0
  0.750000   0.781250 0
  0.062500   0.062500 0
  0.500000   0.187500 0
  0.500000   0.218750 0
  0.500000   0.250000 0
  0.437500   0.031250 0
  0.781250   0.812500 0
  0.093750   0.093750 0
  0.437500   0.000000 0
  0.437500   0.062500 0
  0.781250   0.843750 0
  0.093750   0.125000 0
  0.406250   0.187500 0
  0.406250   0.250000 0
  0.406250   0.218750 0
  0.437500   0.250000 0
  0.437500   0.218750 0
  0.437500   0.187500 0
  0.500000   0.000000 0
  0.500000   0.031250 0
  0.468750   0.031250 0
  0.468750   0.000000 0
  0.500000   0.062500 0
  0.468750   0.062500 0
  0.812500   0.843750 0
  0.125000   0.125000 0
  0.812500   0.875000 0
  0.125000   0.156250 0
  0.500000   0.093750 0
  0.843750   0.875000 0
  0.156250   0.156250 0
  1.000000   1.000000 0
  0.312500   0.281250 0
  0.656250   0.218750 0
  0.437500   0.156250 0
  0.312500   0.500000 0
  0.437500   0.125000 0
  0.312500   0.468750 0
  0.437500   0.093750 0
  0.781250   0.031250 0
  0.312500   0.437500 0
  0.312500   0.406250 0
  0.312500   0.312500 0
  0.312500   0.343750 0
  0.312500   0.375000 0
  0.375000   0.437500 0
  0.375000   0.406250 0
  0.375000   0.343750 0
  0.718750   0.281250 0
  0.375000   0.375000 0
  0.968750   1.000000 0
  0.281250   0.281250 0
  0.406250   0.156250 0
  0.281250   0.500000 0
  0.406250   0.125000 0
  0.281250   0.468750 0
[...]
CELL_DATA 1024
SCALARS scalar_value float 1
LOOKUP_TABLE default
0
0
3.61808e-09
1.83083e-10
0
0
0
0
0
0
1.924e-09
0
0
0
0
0
0
6.78935e-10
4.57277e-09
0
0
0
0
0
0
0
0
-4.91085e-10
0
-2.29776e-09
-7.49662e-09
0
6.1201e-09
1.72116e-08
0.00441805
0.130831
-7.72606e-05
-0.00152001
-2.6138e-09
2.60859e-08
0.109649
1.11542
-0.011784
-1.57313e-06
2.67547e-08
8.8757e-08
-1.70032e-05
-1.27078e-06
6.01628e-07
2.92329e-08
-0.000161262
4.61788e-05
4.91183e-06
-0.00470283
-3.40401e-06
-0.00606112
2.73612e-05
-0.00210523
-1.19982e-06
-0.00591106
-3.93495e-06
-3.72383e-06
-0.00291373
-0.00210029
0
0
0
0
0
-5.29649e-10
0
0
0
0
0
0
-1.8019e-09
-3.27957e-09
-1.69046e-08
0
0
0
0
-3.10399e-10
0
2.8295e-10
1.91518e-08
-2.89128e-08
0
0
0
0
-1.8184e-10
-7.31755e-09
-3.78448e-08
-1.21544e-09
9.38712e-06
1.57287e-05
-9.15681e-08
1.68641e-07
-0.000677532
0.00673596
0.0455298
1.06087e-05
-6.64657e-06
2.87727e-08
-2.45373e-07
0.0023758
-0.000262482
0.0168292
0.478094
1.2285
2.49534
0.0254567
0.00152023
3.55098e-06
5.35425e-08
1.95275e-05
-0.000112232
0.42526
1.6199
0.122124
0.00284033
1.19363e-05
-0.00014136
2.86882e-06
2.31991e-07
1.21755
-3.08193e-09
0
0
0
-8.34866e-10
0
0
0
0
0
0
4.78184e-10
-3.35686e-09
0
1.31761e-10
0
0
0
0
0
0
0
0
-3.72975e-10
0
0
0
0
0
0
-3.20948e-10
-3.16429e-09
-1.58569e-08
-6.88184e-09
3.5597e-09
-2.3134e-06
-0.000342349
9.30161e-06
-1.53193e-07
-1.5038e-07
-1.18594e-09
9.69431e-08
-0.000164938
0.00037988
2.55678e-06
2.79668e-05
-1.69424e-06
1.17328e-07
1.54369e-07
5.07461e-09
2.19683e-05
-2.56102e-07
-7.13664e-07
-0.000116724
0.00354587
0.00112313
1.04101e-07
-7.94329e-09
-4.02766e-06
3.42189e-07
2.15468e-06
0.000104822
-0.000269077
-0.00104108
0
0
0
0
0
0
0
0
0
0
0
-1.49446e-10
0
0
0
0
2.00055e-10
0
0
0
0
0
0
0
-3.72225e-10
0
0
0
0
-3.83432e-10
0
0
-2.15927e-08
7.08435e-08
1.62273e-09
-3.505e-09
6.45576e-07
2.95803e-08
-2.38998e-07
8.64873e-09
-2.66847e-09
7.27552e-06
-4.72788e-07
-3.75181e-07
-2.46434e-05
-9.10868e-05
-3.04289e-08
1.18191e-08
-5.19327e-10
2.11434e-05
-0.00026501
-3.15585e-09
1.93728e-09
-2.32372e-08
5.735e-08
-6.53566e-08
2.78667e-06
6.11903e-07
-1.73318e-05
-0.000157417
-2.33105e-05
-0.00010115
6.54162e-07
3.41392e-08
2.38381
1.94838
3.0056
3.13268
2.96312
2.69291
-0.000458724
-0.00183802
0.367967
0.0820134
0.00115645
0.000403393
0.355336
0.538141
0.98548
0.731727
0.950934
0.756103
0.00045609
-0.00300826
2.57899
1.85901
0.017166
0.00634992
0.0194449
0.00335549
-0.00294601
8.37482e-05
1.0479e-05
-0.000222206
0.00125108
0.000268047
1.83765e-07
3.56851e-06
1.13212e-06
-1.02845e-07
0.116416
0.84008
-5.22929e-05
0.000104126
-0.000335636
0.00263174
-0.00310441
0.00477351
0.00406504
0.00390493
-3.33133e-05
0.000116874
9.42217e-05
0.000196635
0.000981214
8.42892e-06
0.000101167
1.95785e-06
3.1112e-05
-0.000322809
0.000139169
2.89477e-05
1.19013e-06
-2.42593e-06
1.29706e-05
-1.87532e-06
-3.14476e-05
-1.4329e-05
4.54688
4.63527
3.09894
4.13315
4.6462
4.64658
4.63687
4.42249
3.05976
4.04552
1.77972
1.13424
4.64611
4.54837
4.64596
4.60648
3.86119
3.81959
2.88278
4.33378
4.50138
4.62058
4.47492
4.54863
4.59059
3.8372
3.99253
3.64363
3.18241
4.20095
4.15822
4.25423
3.69177
2.99672
4.16
2.28435
0.478601
-0.00618265
-0.0027601
0.000742255
0.00018238
-0.000215006
1.14156
0.0485948
0.000619738
-2.75529e-05
-0.000393728
-0.000221725
2.4974
3.83972
0.605373
-0.00724204
1.56478e-05
-0.000262274
-0.00254797
0.0012041
0.264464
-0.00297192
1.63623
3.04863
-3.48854e-05
0.000271669
-0.00236764
-0.00017269
1.58545
0.15487
4.64676
4.64556
4.61135
4.24886
0.0384228
4.64676
4.6455
4.23629
4.6075
3.33108
0.0146995
0.337495
1.77493
0.164792
0.00212355
3.31381
1.65182
1.20868
3.02771
4.10843
4.57273
4.64619
4.64488
4.64524
4.17285
3.22081
4.64537
4.58016
4.64559
4.6462
4.04541
4.56533
0.000781394
0.000918282
-0.00145017
0.597645
2.70415
3.97644
4.57504
0.000141397
0.000542195
-0.00287553
2.39695
4.64346
4.45074
0.0029871
1.4036
3.5849
4.446
4.64248
0.0229205
1.60169
3.62683
0.000315822
-0.000840763
-0.00340613
-0.00290072
-0.000111648
-0.00116421
0.329147
7.34349e-05
-0.00136798
1.34762
3.06229
0.00152021
0.0787831
4.09564
4.57085
1.61746
3.26383
0.161147
0.000353198
4.60858
4.22867
4.64692
4.575
4.64695
4.6456
4.6469
4.64557
4.57408
4.11303
0.0771683
0.00154901
1.34573
3.07897
4.64588
4.11925
1.364
3.09769
4.64693
0.0836312
0.00154804
4.64559
3.42835
0.998105
4.64522
4.45944
-0.00993731
-0.00371638
0.000100765
-0.0011974
0.000296422
0.054581
3.69501
1.79884
4.45043
4.64178
3.18049
0.813427
4.32701
4.6323
-0.00348931
-0.00816617
-0.00112088
0.000121777
0.0014031
0.000926729
-0.00255669
0.00534615
4.47393
4.64541
3.47541
1.20023
-0.000535352
0.000710766
1.07863e-08
7.38934e-10
-1.81633e-09
0
0
4.97093e-10
0
0
0
4.95478e-10
0
0
0
-5.8605e-10
0
0
0
7.34406e-10
0
-7.31828e-09
0
0
0
-5.21655e-10
0
0
9.63506e-09
0
0
0
0
0
-0.000798038
2.5873e-05
-0.000123716
8.37298e-08
6.5857e-08
0.00908934
0.099996
0.0022531
-0.000118693
3.09257e-05
-3.32239e-06
-3.0757e-08
-1.05441e-07
0.000661368
0.00722554
-2.73034e-05
0.000386688
1.59737e-06
7.37125e-07
2.92824e-07
2.19859e-06
1.08181e-06
-3.57419e-05
0.000197511
-2.12325e-08
-2.44341e-07
-1.2165e-07
-2.63666e-07
2.95641e-08
9.04971e-06
-4.47235e-09
1.06733e-08
0
5.51089e-10
-9.14967e-10
0
0
-2.0459e-08
3.22024e-08
7.1878e-07
-6.4606e-07
2.73842e-10
-9.39157e-10
0
4.34918e-08
-1.43695e-08
4.87357e-07
-2.93485e-06
0
0
1.86037e-10
-2.95678e-10
1.83139e-07
-1.08032e-06
-5.6872e-09
1.54695e-08
0
-3.28102e-10
0
0
-1.57782e-07
6.1007e-09
-8.48162e-10
8.84617e-09
-2.85884e-05
0.000189575
0.000166099
-6.79885e-06
-0.000116824
0.000693095
0.00589559
0.387932
2.32244
3.90888
4.55264
0.00788129
1.70491
0.169414
3.52001
4.39451
-4.41166e-06
6.80518e-05
0.000293594
0.00510111
2.78206
3.12777
0.216222
1.47551
0.741967
-1.85869e-05
5.97606e-05
3.94538e-06
-8.21207e-08
-0.000887217
0.0428049
-0.00820833
0
0
-4.00636e-07
9.49479e-07
-2.69494e-09
-4.86087e-08
0
0
-1.26665e-07
-2.72691e-09
-1.50665e-08
-2.24997e-10
0
0
0
0
0
0
5.29703e-10
2.96028e-10
0
-1.17777e-05
-4.56454e-09
5.95203e-07
2.20471e-09
2.60444e-07
2.16723e-10
5.72451e-07
-1.30085e-09
-1.25384e-08
5.35344e-08
-1.43139e-06
-2.04418e-05
7.71379e-07
1.09862
0.177336
-0.0024107
-0.000179343
0.000944861
4.49134e-05
3.76344
4.26256
0.228163
0.0126507
5.20603e-05
6.16144e-05
1.30657
2.88109
0.139414
0.00746743
0.00250417
8.75759e-05
2.33752
3.12182
0.546561
0.0279643
2.36753
4.63634
4.44048
3.79661
4.35655
3.79537
1.28126
2.76087
0
0
0
0
0
0
8.46533e-10
0
0
0
0
0
0
2.99319e-10
-1.16348e-09
4.24229e-08
3.76967e-07
-5.00023e-10
-1.31853e-10
0
0
0
0
2.25367e-09
6.99464e-08
1.56831e-09
-2.60293e-10
0
0
0
0
7.55715e-09
-7.48539e-06
-0.00019385
-6.60713e-08
-1.43081e-06
-0.0011358
-0.00125266
0.00957554
0.007049
-7.82709e-07
-5.90375e-05
-3.2291e-07
-4.01728e-08
0.000365587
-0.000393311
0.00576615
0.00145545
0.947931
-5.63885e-06
-5.08271e-08
-3.78948e-05
-0.000563075
0.0044347
0.129333
-0.00284355
-0.00462859
-2.94033e-06
-0.0017209
-1.04073e-05
-1.89901e-06
0.107661
0.00262468
-0.0155176
0.353889
1.38518
4.64417
4.64017
4.64431
4.50262
3.94756
2.91845
0.137446
1.4518
4.64501
4.64259
4.56687
4.64593
4.09879
3.08962
0.161557
0.00106086
4.19623
3.22735
1.57371
4.60136
4.64627
4.6471
1.54481
0.177584
4.07814
3.09865
4.54022
4.64183
4.64536
4.64522
4.48852
3.69661
0.000544601
-0.000311578
0.000765964
-0.00338041
4.62873
-0.00518014
-0.000111024
-0.000486454
-0.001006
0.00145579
0.0530851
1.62841
2.90042
4.25565
0.639756
4.24623
4.62701
-0.00447067
0.552087
2.91322
-0.0020236
-7.26957e-05
-0.00118513
4.23587
0.331108
2.69332
-0.000323323
-5.21138e-05
-0.000784224
-0.000318597
4.6413
4.64554
4.66092
4.64426
4.64455
4.64541
4.64422
4.64463
4.62214
4.62446
4.42505
3.87198
2.96945
3.58897
2.29867
4.4415
3.90723
2.82811
3.51117
3.09202
4.2697
4.32031
4.56662
4.64736
4.63445
4.62374
4.32347
4.62978
4.37455
3.47834
4.64425
4.63486
-0.00404682
-0.00204677
1.49079
0.15003
0.000866371
0.00210395
-0.000258066
0.0533243
1.13796
0.000991267
0.000271422
0.000643356
-3.13933e-05
8.27742e-05
0.105426
0.000685929
1.40197
3.27331
-0.00063622
-0.0010317
0.000492402
8.90088e-06
-4.85058e-05
2.34234e-05
0.293965
1.84543
-0.00536564
-0.00153315
0.00189432
0.000194471
0.000101463
-0.000252188
2.41496
3.49837
3.45539
2.02753
3.60824
3.47029
4.18634
3.71717
4.32075
4.18445
3.96359
3.75195
4.44503
4.50479
3.99904
4.61276
4.45092
4.61005
4.5606
4.64212
4.64535
4.55989
4.20855
4.64459
4.64478
3.16269
4.58016
4.64421
4.64512
4.23537
4.61564
4.64816
6.43565e-05
2.33323
3.05644
-0.00166934
-0.00020893
-0.00202647
0.000573784
0.17595
1.20759
1.86238
0.500555
-0.000245369
-0.000348521
0.00237626
-0.000795145
-0.00156123
0.0162026
-0.0233307
0.421812
0.00221458
-0.0023899
0.0086301
-0.000360973
0.000209547
0.0984411
1.03439
-0.00283626
-0.00389704
0.00198456
-6.85219e-05
5.01544e-05
0.000109588
-0.00274861
-0.000809868
-0.00202626
0.000590447
0.00836791
0.0176668
0.0173329
-0.00429576
-0.0131352
-0.0032855
9.44972e-05
0.000406802
-0.000266522
0.000209719
-0.000455377
-0.00024971
0.703107
0.460414
0.845236
0.953671
0.148715
-0.0306149
0.93473
0.595721
2.63837
2.8169
2.28313
1.86874
1.39375
1.7497
2.64662
2.22467
0.000733239
-0.00341289
-0.000334047
-1.38845e-07
1.817e-05
-0.000230325
-0.000347167
0.000156633
2.43026e-05
-4.34163e-06
1.99103e-06
-4.69889e-07
0.928074
-1.38459e-06
8.54301e-07
3.10564e-07
-1.67059e-07
0.0192959
0.00738165
0.174453
0.0162945
0.463406
-0.000858542
-0.00119784
1.2211e-05
2.46167e-05
0.0133283
0.00246392
1.91027e-05
6.60599e-06
-1.91509e-06
0.000235064
