# vtk DataFile Version 2.0
Unstructured Grid by M++
ASCII
DATASET UNSTRUCTURED_GRID
POINTS 1089 float
  0.968750   0.906250 0
  0.968750   0.937500 0
  1.000000   0.906250 0
  1.000000   0.937500 0
  1.000000   0.968750 0
  0.906250   0.906250 0
  0.906250   0.875000 0
  0.906250   0.812500 0
  0.906250   0.843750 0
  0.937500   0.906250 0
  0.937500   0.937500 0
  0.937500   0.843750 0
  0.937500   0.875000 0
  0.968750   0.875000 0
  0.968750   0.656250 0
  0.968750   0.687500 0
  1.000000   0.656250 0
  1.000000   0.625000 0
  1.000000   0.687500 0
  0.906250   0.656250 0
  0.906250   0.687500 0
  0.906250   0.625000 0
  0.906250   0.531250 0
  0.906250   0.562500 0
  0.906250   0.593750 0
  0.937500   0.656250 0
  0.937500   0.687500 0
  0.937500   0.531250 0
  0.937500   0.562500 0
  0.937500   0.593750 0
  0.937500   0.625000 0
  0.968750   0.625000 0
  0.968750   0.593750 0
  1.000000   0.593750 0
  0.968750   0.562500 0
  1.000000   0.562500 0
  1.000000   0.531250 0
  0.968750   0.531250 0
  0.781250   1.000000 0
  0.812500   0.781250 0
  0.812500   0.812500 0
  0.875000   0.843750 0
  0.875000   0.812500 0
  0.875000   0.875000 0
  0.781250   0.781250 0
  0.843750   0.843750 0
  0.843750   0.812500 0
  0.875000   0.781250 0
  0.843750   0.781250 0
  0.781250   0.750000 0
  0.781250   0.718750 0
  0.781250   0.687500 0
  0.812500   0.750000 0
  0.812500   0.718750 0
  0.812500   0.531250 0
  0.812500   0.687500 0
  0.812500   0.656250 0
  0.812500   0.562500 0
  0.812500   0.593750 0
  0.812500   0.625000 0
  0.875000   0.687500 0
  0.875000   0.656250 0
  0.875000   0.593750 0
  0.875000   0.562500 0
  0.875000   0.625000 0
  0.781250   0.531250 0
  0.781250   0.562500 0
  0.781250   0.625000 0
  0.781250   0.593750 0
  0.781250   0.656250 0
  0.843750   0.656250 0
  0.843750   0.593750 0
  0.843750   0.562500 0
  0.843750   0.625000 0
  0.843750   0.687500 0
  0.843750   0.750000 0
  0.875000   0.531250 0
  0.843750   0.531250 0
  0.656250   0.906250 0
  0.656250   0.937500 0
  0.656250   1.000000 0
  0.656250   0.968750 0
  0.687500   1.000000 0
  0.687500   0.968750 0
  0.687500   0.937500 0
  0.718750   0.937500 0
  0.718750   0.968750 0
  0.718750   1.000000 0
  0.656250   0.781250 0
  0.656250   0.812500 0
  0.656250   0.843750 0
  0.656250   0.875000 0
  0.750000   0.968750 0
  0.750000   1.000000 0
  0.750000   0.656250 0
  0.750000   0.625000 0
  0.687500   0.656250 0
  0.687500   0.687500 0
  0.687500   0.625000 0
  0.718750   0.656250 0
  0.718750   0.687500 0
  0.718750   0.718750 0
  0.656250   0.531250 0
  0.656250   0.562500 0
  0.656250   0.656250 0
  0.656250   0.687500 0
  0.656250   0.750000 0
  0.656250   0.718750 0
  0.656250   0.625000 0
  0.656250   0.593750 0
  0.750000   0.687500 0
  0.750000   0.718750 0
  0.750000   0.750000 0
  0.687500   0.531250 0
  0.687500   0.562500 0
  0.687500   0.593750 0
  0.718750   0.625000 0
  0.750000   0.531250 0
  0.718750   0.531250 0
  0.750000   0.562500 0
  0.718750   0.562500 0
  0.718750   0.593750 0
  0.750000   0.593750 0
  0.562500   1.000000 0
  0.562500   0.968750 0
  0.562500   0.937500 0
  0.562500   0.906250 0
  0.562500   0.812500 0
  0.562500   0.843750 0
  0.562500   0.875000 0
  0.625000   0.937500 0
  0.625000   0.906250 0
  0.562500   0.781250 0
  0.625000   0.875000 0
  0.531250   1.000000 0
  0.531250   0.968750 0
  0.531250   0.937500 0
  0.531250   0.812500 0
  0.531250   0.875000 0
  0.531250   0.843750 0
  0.531250   0.906250 0
  0.593750   0.906250 0
  0.593750   0.843750 0
  0.593750   0.875000 0
  0.593750   0.812500 0
  0.625000   0.843750 0
  0.625000   0.812500 0
  0.593750   0.937500 0
  0.625000   1.000000 0
  0.593750   1.000000 0
  0.593750   0.968750 0
  0.625000   0.968750 0
  0.625000   0.781250 0
  0.593750   0.781250 0
  0.562500   0.531250 0
  0.562500   0.750000 0
  0.562500   0.718750 0
  0.562500   0.687500 0
  0.562500   0.656250 0
  0.562500   0.562500 0
  0.562500   0.593750 0
  0.562500   0.625000 0
  0.625000   0.687500 0
  0.625000   0.656250 0
  0.625000   0.593750 0
  0.625000   0.562500 0
  0.625000   0.625000 0
  0.531250   0.531250 0
  0.531250   0.750000 0
  0.531250   0.718750 0
  0.531250   0.687500 0
  0.531250   0.562500 0
  0.531250   0.625000 0
  0.531250   0.593750 0
  0.531250   0.656250 0
  0.593750   0.656250 0
  0.593750   0.593750 0
  0.593750   0.562500 0
  0.593750   0.625000 0
  0.593750   0.687500 0
  0.625000   0.750000 0
  0.593750   0.750000 0
  0.593750   0.718750 0
  0.625000   0.718750 0
  0.625000   0.531250 0
  0.593750   0.531250 0
  0.968750   0.406250 0
  0.968750   0.437500 0
  0.968750   0.468750 0
  0.968750   0.500000 0
  1.000000   0.406250 0
  1.000000   0.375000 0
  1.000000   0.437500 0
  1.000000   0.468750 0
  1.000000   0.500000 0
  0.906250   0.500000 0
  0.906250   0.406250 0
  0.906250   0.437500 0
  0.906250   0.281250 0
  0.906250   0.312500 0
  0.906250   0.343750 0
  0.906250   0.375000 0
  0.937500   0.406250 0
  0.937500   0.500000 0
  0.937500   0.468750 0
  0.937500   0.437500 0
  0.937500   0.281250 0
  0.937500   0.312500 0
  0.937500   0.343750 0
  0.937500   0.375000 0
  0.968750   0.375000 0
  1.000000   0.281250 0
  0.968750   0.281250 0
  1.000000   0.312500 0
  0.968750   0.312500 0
  0.968750   0.343750 0
  1.000000   0.343750 0
  0.968750   0.125000 0
  0.968750   0.156250 0
  0.968750   0.187500 0
  1.000000   0.000000 0
  1.000000   0.156250 0
  1.000000   0.125000 0
  1.000000   0.187500 0
  1.000000   0.218750 0
  0.531250   0.781250 0
  1.000000   0.250000 0
  0.906250   0.250000 0
  0.906250   0.218750 0
  0.937500   0.250000 0
  0.937500   0.218750 0
  0.968750   0.250000 0
  0.906250   0.031250 0
  0.906250   0.000000 0
  0.906250   0.062500 0
  0.906250   0.093750 0
  0.906250   0.125000 0
  0.937500   0.156250 0
  0.937500   0.031250 0
  0.937500   0.000000 0
  0.937500   0.062500 0
  0.937500   0.093750 0
  0.937500   0.125000 0
  1.000000   0.031250 0
  0.968750   0.031250 0
  0.968750   0.000000 0
  1.000000   0.062500 0
  0.968750   0.062500 0
  0.968750   0.093750 0
  1.000000   0.093750 0
  0.781250   0.312500 0
  0.781250   0.343750 0
  0.812500   0.500000 0
  0.812500   0.468750 0
  0.812500   0.437500 0
  0.812500   0.281250 0
  0.812500   0.312500 0
  0.812500   0.343750 0
  0.812500   0.375000 0
  0.875000   0.281250 0
  0.875000   0.406250 0
  0.875000   0.343750 0
  0.875000   0.312500 0
  0.875000   0.375000 0
  0.843750   0.281250 0
  0.843750   0.312500 0
  0.843750   0.375000 0
  0.843750   0.343750 0
  0.781250   0.500000 0
  0.781250   0.468750 0
  0.781250   0.437500 0
  0.781250   0.406250 0
  0.875000   0.500000 0
  0.843750   0.500000 0
  0.843750   0.468750 0
  0.875000   0.468750 0
  0.781250   0.281250 0
  0.843750   0.218750 0
  0.843750   0.250000 0
  0.843750   0.187500 0
  0.843750   0.156250 0
  0.875000   0.218750 0
  0.875000   0.250000 0
  0.875000   0.187500 0
  0.812500   0.062500 0
  0.812500   0.250000 0
  0.812500   0.218750 0
  0.812500   0.187500 0
  0.812500   0.156250 0
  0.812500   0.125000 0
  0.843750   0.093750 0
  0.843750   0.062500 0
  0.875000   0.125000 0
  0.875000   0.093750 0
  0.875000   0.062500 0
  0.781250   0.250000 0
  0.781250   0.218750 0
  0.781250   0.187500 0
  0.093750   0.937500 0
  0.125000   1.000000 0
  0.937500   0.718750 0
  0.250000   0.000000 0
  0.093750   0.968750 0
  0.125000   0.968750 0
  0.000000   0.718750 0
  0.000000   0.750000 0
  0.125000   0.531250 0
  0.125000   0.562500 0
  0.093750   0.531250 0
  0.031250   0.750000 0
  0.125000   0.468750 0
  0.156250   0.468750 0
  0.500000   0.375000 0
  0.156250   0.500000 0
  0.406250   0.406250 0
  0.406250   0.437500 0
  0.406250   0.500000 0
  0.406250   0.468750 0
  0.406250   0.375000 0
  0.750000   0.312500 0
  0.437500   0.406250 0
  0.437500   0.500000 0
  0.437500   0.468750 0
  0.437500   0.437500 0
  0.468750   0.437500 0
  0.468750   0.468750 0
  0.406250   0.281250 0
  0.406250   0.312500 0
  0.062500   0.375000 0
  0.406250   0.343750 0
  0.062500   0.406250 0
  0.500000   0.468750 0
  0.500000   0.500000 0
  0.437500   0.281250 0
  0.437500   0.312500 0
  0.437500   0.343750 0
  0.093750   0.406250 0
  0.437500   0.375000 0
  0.093750   0.437500 0
  0.468750   0.375000 0
  0.125000   0.437500 0
  0.500000   0.281250 0
  0.468750   0.281250 0
  0.500000   0.312500 0
  0.468750   0.312500 0
  0.468750   0.343750 0
  0.500000   0.343750 0
  0.843750   0.906250 0
  0.156250   0.187500 0
  0.468750   0.187500 0
  0.468750   0.218750 0
  0.468750   0.250000 0
  0.406250   0.031250 0
  0.750000   0.812500 0
  0.062500   0.093750 0
  0.406250   0.000000 0
  0.750000   0.781250 0
  0.062500   0.062500 0
  0.500000   0.187500 0
  0.500000   0.218750 0
  0.500000   0.250000 0
  0.437500   0.031250 0
  0.781250   0.812500 0
  0.093750   0.093750 0
  0.437500   0.000000 0
  0.437500   0.062500 0
  0.781250   0.843750 0
  0.093750   0.125000 0
  0.406250   0.187500 0
  0.406250   0.250000 0
  0.406250   0.218750 0
  0.437500   0.250000 0
  0.437500   0.218750 0
  0.437500   0.187500 0
  0.500000   0.000000 0
  0.500000   0.031250 0
  0.468750   0.031250 0
  0.468750   0.000000 0
  0.500000   0.062500 0
  0.468750   0.062500 0
  0.812500   0.843750 0
  0.125000   0.125000 0
  0.812500   0.875000 0
  0.125000   0.156250 0
  0.500000   0.093750 0
  0.843750   0.875000 0
  0.156250   0.156250 0
  1.000000   1.000000 0
  0.312500   0.281250 0
  0.656250   0.218750 0
  0.437500   0.156250 0
  0.312500   0.500000 0
  0.437500   0.125000 0
  0.312500   0.468750 0
  0.437500   0.093750 0
  0.781250   0.031250 0
  0.312500   0.437500 0
  0.312500   0.406250 0
  0.312500   0.312500 0
  0.312500   0.343750 0
  0.312500   0.375000 0
  0.375000   0.437500 0
  0.375000   0.406250 0
  0.375000   0.343750 0
  0.718750   0.281250 0
  0.375000   0.375000 0
  0.968750   1.000000 0
  0.281250   0.281250 0
  0.406250   0.156250 0
  0.281250   0.500000 0
  0.406250   0.125000 0
  0.281250   0.468750 0
[...]
CELL_DATA 1024
SCALARS scalar_value float 1
LOOKUP_TABLE default
-2.11448e-08
-3.59269e-10
6.89648e-07
-1.21818e-07
3.09521e-10
0
0
-3.11506e-08
6.8804e-10
-2.38641e-07
7.03143e-07
0
6.51819e-10
0
0
0
-2.53588e-10
-9.28952e-08
3.92366e-07
2.63377e-09
1.50261e-09
-2.67793e-10
0
0
0
0
-2.07234e-09
-4.85084e-08
-1.20072e-08
6.76573e-08
2.18244e-06
0
-0.000114956
1.38542e-05
0.206456
0.420987
-0.0176776
0.0606351
-8.54708e-05
8.37e-06
1.32262
1.91033
0.721818
-0.00124742
1.20536e-05
-0.000197398
-0.0451753
-0.00368226
-6.4116e-05
8.85766e-06
0.109547
0.000147378
-0.000303755
-0.0035842
-0.0131144
-0.00258036
-0.000378659
-0.000347811
-0.00174915
-0.0038493
-0.0183065
-0.00782422
-0.00650522
-0.001519
0
2.91843e-10
0
0
2.76651e-09
3.24998e-08
0
-5.39922e-10
0
0
-1.21936e-08
-2.85738e-09
-1.11328e-08
3.29566e-07
2.98946e-06
-7.18549e-10
-4.99335e-09
0
0
-8.09012e-08
-2.87133e-08
4.468e-07
7.9306e-06
3.87894e-07
-1.01262e-10
0
-7.80352e-10
-5.55779e-09
-3.64455e-08
-5.28497e-07
4.0239e-06
-1.9186e-07
0.0013287
0.0667204
1.10839e-05
-0.000138086
0.41211
1.39969
2.85102
-0.000113716
0.00225822
-1.00379e-05
4.33978e-06
0.465067
-0.00377269
2.14863
3.49251
2.9489
3.33721
2.77728
2.13981
0.000612446
0.000118557
0.00345411
0.560835
3.45223
3.88884
2.3979
1.21382
-0.00784469
0.117792
-4.55146e-05
6.48685e-05
3.91357
7.85689e-07
0
0
7.40232e-09
2.45783e-08
-2.19698e-09
-1.24405e-10
0
0
0
0
8.35797e-09
2.73772e-09
-2.56514e-10
-1.08122e-09
0
0
0
0
-2.40752e-09
-1.5754e-10
0
-2.08085e-08
-7.91182e-08
0
0
0
0
-2.97642e-10
-2.06715e-09
1.75751e-09
1.85072e-07
-2.17813e-07
7.17476e-07
-2.35223e-07
-0.000169998
0.0018669
1.43169e-05
-6.4465e-06
4.18684e-06
-1.3276e-06
4.80484e-07
0.000622319
0.0199384
0.000138002
-0.000257112
-2.82123e-05
2.98971e-06
-4.45324e-05
4.60723e-06
0.00309067
-0.000559518
0.00016711
-0.00152866
0.375942
0.191395
3.65495e-06
-1.05611e-06
3.70551e-05
-9.2894e-06
-5.65882e-05
0.00161598
0.008765
0.111011
0
0
0
0
0
0
0
0
0
-1.74654e-10
8.59612e-10
-2.13658e-09
0
-2.49668e-10
0
2.17987e-10
1.82193e-09
0
0
0
0
0
1.08605e-10
0
-1.19924e-08
1.9905e-09
0
0
9.82011e-10
-3.55407e-09
0
-2.86856e-10
1.25992e-08
-3.63404e-07
3.10123e-09
-1.96251e-08
-1.10536e-06
-1.02739e-06
-5.50037e-07
9.34585e-08
-1.9995e-08
-2.94052e-05
6.87698e-06
7.89431e-06
2.95946e-05
-0.000334079
-1.19368e-07
-5.51928e-08
4.60087e-08
8.69971e-06
0.000821692
-5.54805e-08
1.14558e-08
1.12272e-07
-2.13268e-07
1.05242e-06
-1.10891e-05
-1.91045e-06
0.000101303
-9.39869e-06
4.10589e-05
-0.000328075
-1.53091e-06
7.13255e-06
2.71575
2.48154
1.0724
1.74296
2.17995
2.5267
0.00136186
0.000843488
-0.000881915
0.00369575
0.00126053
0.000894627
0.610537
0.552272
0.0194545
-0.00603533
0.109914
0.313306
0.00391063
0.00206065
0.445366
0.0961192
0.00785354
-0.000519483
0.0039254
0.00021523
-0.00075872
-0.000223461
1.04043e-06
-9.16445e-05
0.000691864
9.94755e-05
1.79314e-07
-1.10136e-06
6.72172e-08
-2.04223e-08
0.00157548
-0.002331
-8.91628e-05
4.10915e-05
0.000183876
0.000140162
4.92193e-05
-0.000498414
-0.000287865
0.00116857
1.63239e-05
-0.000136265
3.56343e-05
0.000413458
-0.000320321
2.08121e-05
1.03734e-05
9.27019e-06
7.28292e-06
1.8515e-05
2.31352e-05
-5.2096e-06
-3.12815e-07
-2.48255e-06
4.51917e-07
7.31384e-08
-2.27451e-06
-7.21711e-07
4.65372
4.64679
4.5098
4.65412
4.63799
4.47178
3.85955
2.64065
3.91239
4.45681
3.36698
3.52029
4.64782
4.64219
4.62282
4.24736
1.56982
4.43398
4.21737
4.52828
4.59157
3.9604
2.78915
4.62785
4.51075
4.16936
4.25083
3.98
3.68706
2.89616
4.13782
3.68258
0.814804
0.717872
2.81877
0.000552936
0.00165717
0.00111184
-0.000931188
-0.000169055
0.000187469
-5.77075e-05
0.0127101
-0.00308691
0.000322563
0.000294256
-0.000109506
-0.000154014
-0.00385796
0.891189
-0.000447157
0.00154219
0.000151631
-2.52967e-05
-0.000666076
-0.000365261
-0.00293743
0.00118636
-0.00256269
0.271356
2.45412e-05
6.46904e-05
-0.00017364
-0.000429981
3.07121
1.3754
4.64628
4.64674
4.64073
4.42616
0.782032
4.64601
4.64688
4.40709
4.63795
3.71905
0.422953
1.14933
2.53384
0.424188
-0.00226067
3.66689
2.19969
2.56564
3.9052
4.51888
4.64506
4.64622
4.58506
4.64216
4.55904
4.1026
4.64546
4.64317
4.6457
4.58506
2.92663
4.15701
0.000601668
0.000211437
0.00265458
-0.000370528
0.725612
2.26569
4.01996
0.000911128
0.000436943
0.00231626
0.20019
4.6006
4.05365
0.00286399
0.0772555
2.1636
4.05124
4.58998
0.00598052
0.147372
2.34386
0.000426521
-1.01973e-07
-0.00285338
-0.000302422
9.85085e-06
-0.000619823
0.00289822
-7.377e-05
-0.000793128
1.7419
3.3115
0.000106023
0.204861
4.22833
4.61026
2.13451
3.58171
0.437732
-0.00150985
4.63607
4.38928
4.64675
4.61484
4.64701
4.64679
4.64691
4.64595
4.61342
4.2524
0.200278
-0.000218662
1.74105
3.33741
4.64755
4.26611
1.81782
3.38787
4.647
0.243983
-0.00291846
4.64636
1.61259
-0.0101072
4.62089
4.02938
-0.00529684
-0.000319321
0.000422713
-0.000181178
0.00225897
0.00660361
2.58355
0.269427
4.07642
4.58712
1.22851
-0.0112999
3.69134
4.52083
-0.000639842
-0.00499484
-8.95997e-05
0.000431429
-6.69379e-06
4.91674e-05
0.000918161
-0.000362112
4.09099
4.62469
1.93035
0.0533723
3.56804e-05
-5.6066e-05
-4.2971e-07
4.46309e-08
1.26737e-06
4.68334e-10
0
-3.71542e-08
-3.96659e-08
1.11637e-08
-2.18477e-09
1.99724e-07
0
2.49351e-10
-1.26987e-09
-2.34832e-08
1.98928e-09
-7.66842e-10
-5.12849e-09
3.0129e-09
1.80284e-09
-7.05986e-06
1.23953e-09
-1.65104e-10
-4.06432e-09
4.17147e-09
0
0
-1.22718e-06
-6.69088e-10
2.43381e-10
0
0
0
0.194182
-0.000135112
0.000719551
-2.21002e-05
1.75235e-05
0.839848
1.19179
0.265951
-0.00574416
-0.0133541
-0.0012133
1.91217e-06
-1.92794e-05
-0.0104989
0.0989111
-0.00107715
0.000531648
-0.00203936
-0.000358816
-0.0078381
-9.98456e-05
-5.97206e-05
-0.000341652
0.00192492
1.41745e-06
-4.08307e-06
2.29951e-05
-8.54442e-06
-6.38344e-06
-6.35628e-05
-1.738e-08
-7.30191e-08
3.06065e-09
7.83159e-07
-3.40603e-06
1.05354e-08
-1.27719e-07
8.18231e-06
2.10126e-05
-0.000110024
0.00653496
2.57788e-07
7.20958e-06
7.04256e-09
0.000819347
8.9957e-05
0.00482109
0.0192099
-7.95469e-08
3.12826e-09
5.40574e-07
-2.38774e-06
-1.52258e-05
0.00204761
7.75614e-06
-2.00048e-06
-2.29856e-08
4.84799e-08
7.44824e-09
-1.60144e-09
-1.75267e-05
1.37291e-05
6.78576e-08
-1.57255e-06
0.0279032
0.644299
0.731671
0.123154
2.32343
2.59515
4.02956
4.59332
4.65417
4.63498
4.63725
3.70768
4.6374
4.41655
4.64024
4.64532
0.0111139
0.349126
2.17883
3.92371
4.63004
4.43709
4.5731
4.6891
3.51793
0.300563
1.02168
0.0202329
0.00139337
1.58996
2.68939
2.03369
-3.81423e-07
-4.48812e-08
0.000769188
0.0113811
-6.00667e-06
3.97267e-05
1.81749e-07
-4.53612e-08
-0.000159217
-0.0035364
1.73061e-05
8.25836e-07
-3.18798e-09
-2.73431e-08
-2.32943e-07
-3.47207e-08
-3.52073e-09
-4.49825e-10
-4.15674e-07
-3.53386e-08
2.33841e-09
0.333037
-1.09034e-05
0.0140571
8.82271e-05
0.000629723
3.95473e-06
0.0397288
2.67723e-06
9.71153e-05
0.00413658
0.444681
0.00241341
-0.018193
3.03611
2.57803
1.53538
0.335712
3.34046
1.79801
4.31656
4.4877
4.54622
4.20699
0.442773
1.7655
3.98275
4.15664
3.69799
3.01618
3.50079
1.94835
3.34131
3.60468
4.53841
4.23466
4.60204
4.6283
4.64777
4.63594
4.64439
4.6467
4.6262
4.64359
3.96115e-10
4.82572e-09
0
0
2.27862e-08
-5.82914e-08
-1.03718e-05
1.71059e-10
1.01901e-09
0
0
-7.58113e-08
1.26835e-09
-3.77459e-06
-5.50742e-05
5.26725e-05
0.00476488
-4.62238e-07
5.5332e-08
0
0
3.61784e-09
2.41065e-08
-4.20831e-05
-0.00105704
1.04553e-06
1.02721e-06
2.55054e-08
2.3607e-07
0
-4.16782e-10
-0.000148352
-0.0108293
0.00264752
-0.00112368
-0.00230994
0.0163892
0.00545985
0.00153498
0.00116939
-0.00843017
0.00888782
-0.00137748
-0.000541622
-0.000411514
0.0210809
-0.00378784
-0.00211374
1.87245
-0.0032736
-0.00533107
-0.0096735
0.0141249
0.242622
0.381592
0.0178105
0.108837
0.0321955
0.1258
0.0345329
0.000559328
1.62317
0.739423
1.38085
1.64909
2.72142
4.64854
4.36081
4.64387
4.63376
4.38651
3.7257
1.26606
2.88857
4.64648
4.58922
4.6434
4.6444
4.5192
3.96603
0.419995
0.00994434
4.36941
3.54879
2.07678
4.63619
4.64785
4.64766
2.88319
1.46128
4.39547
3.84596
4.6066
4.64455
4.64382
4.64227
3.88003
1.79359
0.000499748
-0.000119905
0.000142898
-0.00175304
4.4341
-0.00372196
-7.80166e-05
-0.000283757
0.000701499
0.000532041
-0.00177065
0.0890142
0.465738
2.93298
-0.00363914
3.3384
4.43399
-0.00419482
-0.00623946
0.792154
-0.000965958
0.000253596
-0.000429891
3.20862
0.00201558
0.527808
-0.00177324
-0.000475553
-0.000578998
-9.05393e-06
4.28809
3.92267
4.62755
4.51238
4.08915
3.36023
4.51158
4.63765
2.30711
3.18777
1.8571
0.505621
5.1706e-05
4.55218
4.27124
0.942592
0.0680041
-0.00695529
4.5399
4.3246
4.64755
4.58671
4.63469
4.57568
4.65155
4.09831
2.73736
4.65132
2.31519
0.413751
4.5811
3.94533
-0.000132755
0.000700421
0.00532458
-0.00174218
-3.82462e-05
0.000157013
8.46333e-05
0.000571244
-0.000737195
-3.24371e-05
0.000373933
9.23803e-05
5.10012e-05
6.80099e-06
-0.00321531
0.000607199
0.0188365
0.803398
-0.000524659
0.000557137
0.000114395
3.16889e-05
2.72865e-05
4.51878e-06
0.000351844
-0.011734
0.00242197
-0.000505795
-8.92216e-05
-6.49468e-05
3.22812e-05
0.00035502
0.0184377
-0.0202227
-0.0348144
0.000981215
4.04609
3.85053
1.61113
0.61882
2.94267
3.75686
4.13117
4.17666
4.56177
4.42153
0.143717
2.35929
1.09007
3.35073
4.03272
2.46296
3.43262
1.16581
0.145391
4.49058
4.09894
0.0178767
1.93097
3.30651
4.09359
0.416218
4.62411
4.48476
3.41203e-06
0.113006
0.371917
-0.000652916
0.000161248
-0.000835043
-0.000827141
0.00391603
-0.00023285
0.0340477
0.00924028
-3.07137e-05
-5.94879e-05
-0.000209596
0.000179325
0.00097481
0.000867191
-0.00013295
0.00342018
0.000180416
0.000101886
0.00141059
-2.06646e-05
3.0866e-05
0.00484784
0.00395957
0.000661518
-0.000524822
-3.60729e-05
8.98265e-05
-4.33672e-06
-5.99001e-06
0.00584547
-6.5212e-05
-0.000173685
0.00682562
-0.0141614
-0.0112668
-0.00331568
-0.00601969
-0.00550256
-0.00322199
-0.000879201
-0.000443216
-6.9289e-05
0.000237867
-0.000453342
-0.000533023
0.743481
0.635697
0.384462
0.00791313
-0.00238248
0.00284722
-0.0372434
-0.00946652
1.4084
1.18402
2.02735
2.20964
0.537669
0.846233
1.18483
1.04246
2.215e-05
-0.000152226
0.000246006
5.05097e-06
-1.58962e-06
2.4419e-05
-0.000113866
-4.30155e-06
6.31135e-06
-4.15663e-06
2.16854e-06
2.78745e-07
0.183709
-3.33785e-07
-7.52864e-07
2.42044e-07
5.20207e-08
0.00214355
0.0080201
-0.00116571
0.000134506
0.0165917
-0.000451091
-0.000824815
6.89766e-05
-0.000247002
-1.60067e-05
0.000152641
3.3799e-05
4.23857e-06
0.00011654
2.91891e-06
