# vtk DataFile Version 2.0
Unstructured Grid by M++
ASCII
DATASET UNSTRUCTURED_GRID
POINTS 1089 float
  0.968750   0.906250 0
  0.968750   0.937500 0
  1.000000   0.906250 0
  1.000000   0.937500 0
  1.000000   0.968750 0
  0.906250   0.906250 0
  0.906250   0.875000 0
  0.906250   0.812500 0
  0.906250   0.843750 0
  0.937500   0.906250 0
  0.937500   0.937500 0
  0.937500   0.843750 0
  0.937500   0.875000 0
  0.968750   0.875000 0
  0.968750   0.656250 0
  0.968750   0.687500 0
  1.000000   0.656250 0
  1.000000   0.625000 0
  1.000000   0.687500 0
  0.906250   0.656250 0
  0.906250   0.687500 0
  0.906250   0.625000 0
  0.906250   0.531250 0
  0.906250   0.562500 0
  0.906250   0.593750 0
  0.937500   0.656250 0
  0.937500   0.687500 0
  0.937500   0.531250 0
  0.937500   0.562500 0
  0.937500   0.593750 0
  0.937500   0.625000 0
  0.968750   0.625000 0
  0.968750   0.593750 0
  1.000000   0.593750 0
  0.968750   0.562500 0
  1.000000   0.562500 0
  1.000000   0.531250 0
  0.968750   0.531250 0
  0.781250   1.000000 0
  0.812500   0.781250 0
  0.812500   0.812500 0
  0.875000   0.843750 0
  0.875000   0.812500 0
  0.875000   0.875000 0
  0.781250   0.781250 0
  0.843750   0.843750 0
  0.843750   0.812500 0
  0.875000   0.781250 0
  0.843750   0.781250 0
  0.781250   0.750000 0
  0.781250   0.718750 0
  0.781250   0.687500 0
  0.812500   0.750000 0
  0.812500   0.718750 0
  0.812500   0.531250 0
  0.812500   0.687500 0
  0.812500   0.656250 0
  0.812500   0.562500 0
  0.812500   0.593750 0
  0.812500   0.625000 0
  0.875000   0.687500 0
  0.875000   0.656250 0
  0.875000   0.593750 0
  0.875000   0.562500 0
  0.875000   0.625000 0
  0.781250   0.531250 0
  0.781250   0.562500 0
  0.781250   0.625000 0
  0.781250   0.593750 0
  0.781250   0.656250 0
  0.843750   0.656250 0
  0.843750   0.593750 0
  0.843750   0.562500 0
  0.843750   0.625000 0
  0.843750   0.687500 0
  0.843750   0.750000 0
  0.875000   0.531250 0
  0.843750   0.531250 0
  0.656250   0.906250 0
  0.656250   0.937500 0
  0.656250   1.000000 0
  0.656250   0.968750 0
  0.687500   1.000000 0
  0.687500   0.968750 0
  0.687500   0.937500 0
  0.718750   0.937500 0
  0.718750   0.968750 0
  0.718750   1.000000 0
  0.656250   0.781250 0
  0.656250   0.812500 0
  0.656250   0.843750 0
  0.656250   0.875000 0
  0.750000   0.968750 0
  0.750000   1.000000 0
  0.750000   0.656250 0
  0.750000   0.625000 0
  0.687500   0.656250 0
  0.687500   0.687500 0
  0.687500   0.625000 0
  0.718750   0.656250 0
  0.718750   0.687500 0
  0.718750   0.718750 0
  0.656250   0.531250 0
  0.656250   0.562500 0
  0.656250   0.656250 0
  0.656250   0.687500 0
  0.656250   0.750000 0
  0.656250   0.718750 0
  0.656250   0.625000 0
  0.656250   0.593750 0
  0.750000   0.687500 0
  0.750000   0.718750 0
  0.750000   0.750000 0
  0.687500   0.531250 0
  0.687500   0.562500 0
  0.687500   0.593750 0
  0.718750   0.625000 0
  0.750000   0.531250 0
  0.718750   0.531250 0
  0.750000   0.562500 0
  0.718750   0.562500 0
  0.718750   0.593750 0
  0.750000   0.593750 0
  0.562500   1.000000 0
  0.562500   0.968750 0
  0.562500   0.937500 0
  0.562500   0.906250 0
  0.562500   0.812500 0
  0.562500   0.843750 0
  0.562500   0.875000 0
  0.625000   0.937500 0
  0.625000   0.906250 0
  0.562500   0.781250 0
  0.625000   0.875000 0
  0.531250   1.000000 0
  0.531250   0.968750 0
  0.531250   0.937500 0
  0.531250   0.812500 0
  0.531250   0.875000 0
  0.531250   0.843750 0
  0.531250   0.906250 0
  0.593750   0.906250 0
  0.593750   0.843750 0
  0.593750   0.875000 0
  0.593750   0.812500 0
  0.625000   0.843750 0
  0.625000   0.812500 0
  0.593750   0.937500 0
  0.625000   1.000000 0
  0.593750   1.000000 0
  0.593750   0.968750 0
  0.625000   0.968750 0
  0.625000   0.781250 0
  0.593750   0.781250 0
  0.562500   0.531250 0
  0.562500   0.750000 0
  0.562500   0.718750 0
  0.562500   0.687500 0
  0.562500   0.656250 0
  0.562500   0.562500 0
  0.562500   0.593750 0
  0.562500   0.625000 0
  0.625000   0.687500 0
  0.625000   0.656250 0
  0.625000   0.593750 0
  0.625000   0.562500 0
  0.625000   0.625000 0
  0.531250   0.531250 0
  0.531250   0.750000 0
  0.531250   0.718750 0
  0.531250   0.687500 0
  0.531250   0.562500 0
  0.531250   0.625000 0
  0.531250   0.593750 0
  0.531250   0.656250 0
  0.593750   0.656250 0
  0.593750   0.593750 0
  0.593750   0.562500 0
  0.593750   0.625000 0
  0.593750   0.687500 0
  0.625000   0.750000 0
  0.593750   0.750000 0
  0.593750   0.718750 0
  0.625000   0.718750 0
  0.625000   0.531250 0
  0.593750   0.531250 0
  0.968750   0.406250 0
  0.968750   0.437500 0
  0.968750   0.468750 0
  0.968750   0.500000 0
  1.000000   0.406250 0
  1.000000   0.375000 0
  1.000000   0.437500 0
  1.000000   0.468750 0
  1.000000   0.500000 0
  0.906250   0.500000 0
  0.906250   0.406250 0
  0.906250   0.437500 0
  0.906250   0.281250 0
  0.906250   0.312500 0
  0.906250   0.343750 0
  0.906250   0.375000 0
  0.937500   0.406250 0
  0.937500   0.500000 0
  0.937500   0.468750 0
  0.937500   0.437500 0
  0.937500   0.281250 0
  0.937500   0.312500 0
  0.937500   0.343750 0
  0.937500   0.375000 0
  0.968750   0.375000 0
  1.000000   0.281250 0
  0.968750   0.281250 0
  1.000000   0.312500 0
  0.968750   0.312500 0
  0.968750   0.343750 0
  1.000000   0.343750 0
  0.968750   0.125000 0
  0.968750   0.156250 0
  0.968750   0.187500 0
  1.000000   0.000000 0
  1.000000   0.156250 0
  1.000000   0.125000 0
  1.000000   0.187500 0
  1.000000   0.218750 0
  0.531250   0.781250 0
  1.000000   0.250000 0
  0.906250   0.250000 0
  0.906250   0.218750 0
  0.937500   0.250000 0
  0.937500   0.218750 0
  0.968750   0.250000 0
  0.906250   0.031250 0
  0.906250   0.000000 0
  0.906250   0.062500 0
  0.906250   0.093750 0
  0.906250   0.125000 0
  0.937500   0.156250 0
  0.937500   0.031250 0
  0.937500   0.000000 0
  0.937500   0.062500 0
  0.937500   0.093750 0
  0.937500   0.125000 0
  1.000000   0.031250 0
  0.968750   0.031250 0
  0.968750   0.000000 0
  1.000000   0.062500 0
  0.968750   0.062500 0
  0.968750   0.093750 0
  1.000000   0.093750 0
  0.781250   0.312500 0
  0.781250   0.343750 0
  0.812500   0.500000 0
  0.812500   0.468750 0
  0.812500   0.437500 0
  0.812500   0.281250 0
  0.812500   0.312500 0
  0.812500   0.343750 0
  0.812500   0.375000 0
  0.875000   0.281250 0
  0.875000   0.406250 0
  0.875000   0.343750 0
  0.875000   0.312500 0
  0.875000   0.375000 0
  0.843750   0.281250 0
  0.843750   0.312500 0
  0.843750   0.375000 0
  0.843750   0.343750 0
  0.781250   0.500000 0
  0.781250   0.468750 0
  0.781250   0.437500 0
  0.781250   0.406250 0
  0.875000   0.500000 0
  0.843750   0.500000 0
  0.843750   0.468750 0
  0.875000   0.468750 0
  0.781250   0.281250 0
  0.843750   0.218750 0
  0.843750   0.250000 0
  0.843750   0.187500 0
  0.843750   0.156250 0
  0.875000   0.218750 0
  0.875000   0.250000 0
  0.875000   0.187500 0
  0.812500   0.062500 0
  0.812500   0.250000 0
  0.812500   0.218750 0
  0.812500   0.187500 0
  0.812500   0.156250 0
  0.812500   0.125000 0
  0.843750   0.093750 0
  0.843750   0.062500 0
  0.875000   0.125000 0
  0.875000   0.093750 0
  0.875000   0.062500 0
  0.781250   0.250000 0
  0.781250   0.218750 0
  0.781250   0.187500 0
  0.093750   0.937500 0
  0.125000   1.000000 0
  0.937500   0.718750 0
  0.250000   0.000000 0
  0.093750   0.968750 0
  0.125000   0.968750 0
  0.000000   0.718750 0
  0.000000   0.750000 0
  0.125000   0.531250 0
  0.125000   0.562500 0
  0.093750   0.531250 0
  0.031250   0.750000 0
  0.125000   0.468750 0
  0.156250   0.468750 0
  0.500000   0.375000 0
  0.156250   0.500000 0
  0.406250   0.406250 0
  0.406250   0.437500 0
  0.406250   0.500000 0
  0.406250   0.468750 0
  0.406250   0.375000 0
  0.750000   0.312500 0
  0.437500   0.406250 0
  0.437500   0.500000 0
  0.437500   0.468750 0
  0.437500   0.437500 0
  0.468750   0.437500 0
  0.468750   0.468750 0
  0.406250   0.281250 0
  0.406250   0.312500 0
  0.062500   0.375000 0
  0.406250   0.343750 0
  0.062500   0.406250 0
  0.500000   0.468750 0
  0.500000   0.500000 0
  0.437500   0.281250 0
  0.437500   0.312500 0
  0.437500   0.343750 0
  0.093750   0.406250 0
  0.437500   0.375000 0
  0.093750   0.437500 0
  0.468750   0.375000 0
  0.125000   0.437500 0
  0.500000   0.281250 0
  0.468750   0.281250 0
  0.500000   0.312500 0
  0.468750   0.312500 0
  0.468750   0.343750 0
  0.500000   0.343750 0
  0.843750   0.906250 0
  0.156250   0.187500 0
  0.468750   0.187500 0
  0.468750   0.218750 0
  0.468750   0.250000 0
  0.406250   0.031250 0
  0.750000   0.812500 0
  0.062500   0.093750 0
  0.406250   0.000000 0
  0.750000   0.781250 0
  0.062500   0.062500 0
  0.500000   0.187500 0
  0.500000   0.218750 0
  0.500000   0.250000 0
  0.437500   0.031250 0
  0.781250   0.812500 0
  0.093750   0.093750 0
  0.437500   0.000000 0
  0.437500   0.062500 0
  0.781250   0.843750 0
  0.093750   0.125000 0
  0.406250   0.187500 0
  0.406250   0.250000 0
  0.406250   0.218750 0
  0.437500   0.250000 0
  0.437500   0.218750 0
  0.437500   0.187500 0
  0.500000   0.000000 0
  0.500000   0.031250 0
  0.468750   0.031250 0
  0.468750   0.000000 0
  0.500000   0.062500 0
  0.468750   0.062500 0
  0.812500   0.843750 0
  0.125000   0.125000 0
  0.812500   0.875000 0
  0.125000   0.156250 0
  0.500000   0.093750 0
  0.843750   0.875000 0
  0.156250   0.156250 0
  1.000000   1.000000 0
  0.312500   0.281250 0
  0.656250   0.218750 0
  0.437500   0.156250 0
  0.312500   0.500000 0
  0.437500   0.125000 0
  0.312500   0.468750 0
  0.437500   0.093750 0
  0.781250   0.031250 0
  0.312500   0.437500 0
  0.312500   0.406250 0
  0.312500   0.312500 0
  0.312500   0.343750 0
  0.312500   0.375000 0
  0.375000   0.437500 0
  0.375000   0.406250 0
  0.375000   0.343750 0
  0.718750   0.281250 0
  0.375000   0.375000 0
  0.968750   1.000000 0
  0.281250   0.281250 0
  0.406250   0.156250 0
  0.281250   0.500000 0
  0.406250   0.125000 0
  0.281250   0.468750 0
[...]
CELL_DATA 1024
SCALARS scalar_value float 1
LOOKUP_TABLE default
0.0386774
-0.0145095
0.0491752
0.0617479
-0.0223059
-0.0862362
-0.0267863
0.020611
-0.00314004
0.0297529
0.0376535
-0.0488558
-0.0121982
-0.0154353
0.000604688
-0.00112884
0.0202095
-0.0151004
0.0401311
0.00986624
0.0266967
-0.0127614
-0.000198084
-5.22243e-05
-0.00357749
0.000338174
-0.0106209
-0.00444482
0.0221228
-0.0126456
0.0307633
0.000959603
0.00952328
0.0670512
0.00257356
0.00597047
0.00094358
-0.000831314
0.0230327
0.0930713
0.00948234
0.0106429
-0.0358068
0.00717619
0.0770887
-0.00494686
0.0640597
0.0380134
-0.0304518
0.0726151
0.00856818
-0.0037737
-0.0106004
0.00226343
0.0144731
0.000814674
-0.00207414
-0.00491236
0.0136551
0.000108521
0.0282768
-0.00259285
-0.00659895
0.000822299
-0.000149251
0.000341816
3.63541e-06
-1.19577e-05
0.00357995
0.00949034
-0.000211703
-0.000281379
-6.47922e-06
4.43496e-06
-0.0561366
0.00980387
0.879522
0.47044
0.842483
-0.000747143
0.00275446
-4.76753e-05
-8.00667e-06
-0.0576655
-0.0229921
0.18385
0.124973
1.48743
4.74668e-06
4.45225e-06
-0.000190027
0.000767794
0.00218877
0.372304
0.421307
0.123902
-0.0728201
0.121119
0.014739
-0.122529
0.189417
1.07902
1.1978
1.48485
2.25212
0.522705
0.624124
3.75456
3.38414
2.25709
1.11258
0.00679933
-0.00129064
0.029401
0.0271725
0.148666
0.129
0.0403607
0.0593979
-0.0585701
-0.00710031
-0.0432914
-0.0210258
-0.0359873
0.0413011
-0.0336706
-0.0632822
0.180517
2.3923
0.000151283
-8.31008e-05
3.41806
3.80505
2.81535
0.674948
-0.0203601
0.00247858
-4.67112e-05
0.000306424
3.12204
3.65462
0.223261
2.14244
-0.00384942
2.07271e-05
2.78031e-05
-2.98702e-06
0.00167518
-0.00149932
0.000235427
0.19679
1.74711
-6.77322e-05
-9.95788e-06
0.00387738
0.000573476
-0.0256598
0.973273
2.60467
3.20288
4.05984
4.12943
4.08544
3.07542
3.44993
2.08804
1.13831
2.2374
3.65211
4.38388
3.89847
4.44089
4.13718
3.37377
4.63375
4.55608
2.9696
2.04329
4.61251
4.40593
3.96574
4.36857
4.14527
3.91943
4.29021
3.55483
4.61561
4.50297
4.64413
4.59271
4.37561
4.49517
0.000312248
0.000539587
0.00104497
0.00100624
0.00109951
0.000616609
0.000104693
0.000919619
0.00786014
0.000864266
-0.00929191
-0.0113028
-0.000239883
-0.00118478
-0.000347325
-7.99151e-05
-0.0018654
-0.000149058
-8.4636e-05
0.000284789
0.00139382
0.000217844
1.601
0.253673
3.17493
2.69023
8.72923e-05
0.000807118
0.621872
0.716001
-0.0104856
0.117909
-0.00312419
-0.00204495
0.00510965
0.000757934
-0.00276238
-0.00394379
-0.00453085
-0.00448489
-0.00401603
-0.0169252
-0.00656497
-0.00583481
-0.0094441
-0.0226017
0.241511
1.59706
2.93668
-0.0380348
0.0313677
-0.0111901
0.271547
0.0132383
0.00694001
-0.0551361
0.455324
0.120524
0.57145
0.375252
-0.00655028
0.00928492
-0.004705
-0.00778244
0.00369597
0.00614284
1.99072e-05
0.000148163
0.000184924
0.00105361
4.9091e-05
0.000272368
1.20189e-05
-2.63171e-06
2.12096e-06
1.18055e-05
0.00371415
0.000961078
6.64977e-06
-3.25081e-06
7.38862e-05
0.000207023
0.000218751
0.000995264
-4.96142e-05
-3.63489e-06
5.24137e-06
4.67334e-05
4.92968e-06
1.36671e-06
-1.99891e-06
7.31819e-07
-1.14331e-07
-3.04605e-08
-6.89165e-08
3.61984e-07
9.67581e-10
5.32211e-09
1.33084e-09
-1.87384e-10
-2.56951e-06
1.11743e-06
1.54412e-06
-1.86543e-07
-2.40098e-06
2.34002e-06
-1.21526e-06
-1.66775e-06
2.06168e-06
3.16656e-07
-1.46801e-07
-4.87199e-07
4.92915e-07
6.729e-07
5.72758e-07
-1.48981e-07
1.36034e-07
9.56525e-08
-2.59442e-08
-5.58848e-07
-2.30509e-08
1.43277e-08
1.56847e-08
-2.95034e-08
4.73184e-08
-5.5533e-09
1.16058e-07
-8.83273e-08
0.165291
0.172531
-0.14886
0.00205838
0.0734349
0.000630069
0.00023524
-9.42546e-05
4.20577
4.2971
3.77391
2.36152
0.985006
3.75201
0.00101977
-0.00712198
-3.03323e-05
0.0149751
-0.0374564
0.0209539
0.0240504
-0.000311321
0.000160374
0.00916062
0.000585004
0.00521168
0.00205422
0.00934428
-0.000810614
-2.90635e-05
0.00115074
3.479e-05
-0.000124943
-0.000332607
-0.00171883
-1.36267e-05
6.51786e-05
-3.69787e-05
7.73185e-06
-2.41146e-05
4.68871e-06
7.29586e-07
-0.000151938
-0.000171296
2.76788e-05
-3.95126e-05
4.59502e-06
3.5062e-06
-7.78966e-06
-9.77249e-05
-3.83228e-05
2.09486e-06
1.28869e-06
-2.32757e-06
-6.02e-06
1.76875e-06
-2.03896e-05
1.22119e-06
-1.73884e-05
1.86903e-05
3.05406e-07
-1.83849e-06
2.77294e-06
-1.12836e-06
4.63788
4.64249
4.48728
3.10339
4.66106
4.64381
4.58268
4.53939
3.17648
4.63303
4.66249
4.58025
4.62217
4.60335
4.51006
3.06615
2.93214
4.57503
3.99227
4.65163
4.60549
4.37902
3.43853
1.20322
0.0356426
-0.0306432
4.46957
4.63052
1.71028
4.16208
3.35846
0.416046
-0.00142932
0.0116827
-0.000485432
-0.000148984
-0.000803494
-0.00083114
0.000149847
-0.00132826
3.48874e-05
-0.000617148
-0.000152265
-0.00106136
3.69661e-05
0.356033
0.00866396
-0.00168651
-0.00345213
0.00221359
0.0108011
0.308053
-0.00254519
-0.0030677
0.00131031
-6.72519e-05
-0.000203764
-0.000397176
-0.000183479
2.92821e-07
-5.70395e-05
-0.000174228
-0.00022615
-0.000214883
3.30831
4.22192
0.284074
1.82548
4.61882
4.63815
3.65874
4.41199
2.47716
0.898776
4.66378
4.6352
4.59737
4.64886
4.59312
3.43659
4.62671
3.9674
4.64291
4.62148
1.80298
0.396294
3.30924
4.2325
2.69832
4.63253
3.8265
4.43578
4.65039
2.59856
0.978881
4.05547
-0.0010506
-0.00122096
0.668339
0.0129829
-0.00314052
-0.00131936
-0.000239218
-0.000389666
-0.000242649
-0.00161164
-0.00366089
-0.00420121
0.0103762
0.471405
0.00359905
0.00138662
-0.00458772
0.0875296
-0.000388894
-0.000442816
-0.000333068
-0.000155878
-0.000246102
-0.000167844
-0.000583442
-0.00303429
-0.0147107
1.11459
-0.00911393
-0.00425424
-9.3111e-05
-2.3586e-05
0.0108185
-0.0329062
4.32672
3.80552
3.51842
4.26665
4.1776
4.05723
3.96239
2.31878
-0.0133781
-0.0424473
0.729155
1.50913
0.205414
-0.0112947
-0.00153555
-0.00220152
-0.000413231
4.4288
-0.00505096
-0.00590141
0.0131088
0.00826894
0.00661694
0.0121725
2.97494
0.00169144
0.000660415
0.000917704
0.00347558
0.00288552
4.13767
-0.0962278
0.105943
4.53484
4.4933
4.51788
4.54101
4.64005
4.78507
4.75414
4.64483
3.38605
3.46971
4.23829
4.5352
3.53782
3.83656
3.41081
3.39555
4.02344
3.24413
2.46467
3.70101
3.91626
0.431307
1.37519
0.0933224
0.189704
0.232557
0.00715244
0.0367568
0.159626
3.10522
0.421114
0.344864
1.93697
0.980501
0.315921
0.0462805
-0.048486
0.0088437
0.401338
-0.0815635
1.81005
0.0473018
0.0619675
0.0234839
0.0155097
3.76994
4.16892
3.24003
2.44883
0.0147636
0.086534
1.33314
0.330062
3.87764
3.33063
4.30003
4.52586
0.988704
1.26022
2.70247
1.95606
-0.026805
-0.0282795
-0.000607324
0.000865041
-0.00751647
-0.0313796
-0.0609853
-0.083494
-0.0526559
-0.00352961
0.00434296
-0.0128864
0.00996083
-0.0039822
0.0071466
-0.00127124
0.104151
0.0384247
0.0108616
0.0279464
-0.122668
0.175707
-0.00918615
-0.136665
3.45239
1.36427
1.602
1.09567
0.991635
1.94075
3.07275
2.49697
3.78086
4.04754
0.0951367
0.118332
0.330947
-0.261663
1.90279
1.82797
0.0639285
-0.138008
0.198229
1.905
0.193273
1.13654
1.24843
1.32483
-0.0884823
-0.0221469
-0.0112225
0.155582
0.115371
0.0755098
1.68123
0.245089
1.33649
0.835816
3.10593
0.00721032
1.81124
0.51449
0.0317462
0.0122631
-0.00675627
-0.030074
-0.00100736
-0.00136788
-0.0013586
0.00335118
0.0162362
0.0252284
-0.00102405
-0.000537859
9.06725e-05
4.92031e-05
0.0413221
0.00686854
0.000667836
-0.000796328
-0.00185344
-9.06475e-05
0.000263427
0.0142483
-0.00121868
-0.00033478
0.00564889
0.00321456
0.00177124
-0.0012162
-0.00258783
-0.00208594
-0.000776921
0.00344554
0.0090388
0.0103187
0.066898
0.0211601
-0.0367289
0.0126883
0.0403083
0.0575897
0.0389986
-0.0555371
-0.0153187
-0.0158321
-0.02196
0.248068
-0.024461
0.104346
0.0213311
-0.0196179
0.035978
0.0331584
0.0132298
-0.0190558
-0.0243502
-0.0547693
-0.00619196
0.0668891
0.049473
-0.0594635
-0.00529993
0.0765276
-0.0740458
0.118783
-0.0408544
0.0418462
0.0202465
-0.000717227
0.0405484
0.0712416
-0.000165307
7.06799e-05
-4.99684e-05
-6.18387e-05
0.0229801
-0.00124497
0.0758409
0.0241465
0.000262436
-0.000109761
-2.35104e-05
-2.50614e-05
-0.000391498
0.149379
0.0562548
0.0412071
-0.00289573
4.12503e-05
0.000147346
-0.000682666
0.000163933
-0.00266406
-0.00295335
0.00118525
0.0191777
-0.000452572
-0.000130027
6.62792e-05
4.55046
4.73286
0.119974
-0.000320577
2.68891
4.47784
4.66918
4.69753
4.63639
4.65911
1.02724
-0.00983368
4.38676
3.47965
4.69151
4.65651
2.76788
1.23737
4.63278
4.58986
3.97105
4.64304
1.0506
4.29704
4.42585
4.2862
4.73137
4.49456
4.62281
4.20771
2.38533
0.145769
-0.0010342
-0.00247215
7.00578e-05
-3.63438e-05
-2.1314e-05
0.000156755
0.0106175
1.7901e-05
1.33719e-05
-3.97412e-05
1.12431e-05
-0.000235578
-0.000433943
-0.0015788
-0.00114554
0.00453975
-0.000193033
-0.00623976
0.00550563
-0.000131176
-0.00326218
-0.00167567
-6.55467e-06
2.08831e-06
-0.000149572
-0.000429251
-0.000589321
-0.00124421
-0.000343384
-7.47634e-05
-0.000119262
9.43353e-05
0.00410728
0.00306918
-0.00132153
0.00288126
0.000132745
0.000792222
-0.00011016
-0.00149371
0.000335279
-0.00142677
0.000319429
0.000263047
-0.00022466
3.37655
3.47724
3.60696e-05
-0.00016714
6.33788e-05
0.129817
0.352264
-0.159207
3.04888
2.31962
0.159098
1.13905
-0.00461272
-0.00383882
-0.160249
-0.000557416
-0.000533745
0.0161817
0.0194602
-7.14034e-05
2.53505e-05
-1.93875e-05
6.48762e-05
-5.94562e-06
9.04067e-06
1.3142e-06
-1.66507e-05
5.08924e-05
1.60126e-06
-9.21439e-09
3.31717e-06
-1.25913e-06
4.1793e-07
-8.63551e-05
0.000149766
-0.000359651
-0.00167135
9.1371e-05
-5.12639e-05
-4.4182e-05
1.11757e-05
-2.59521e-07
4.68227e-08
-2.1509e-05
-0.000234386
8.48427e-05
-7.02909e-05
4.55309e-05
1.42493e-05
-4.28989e-07
-2.83908e-05
8.32081e-06
1.24393e-05
3.13264e-05
-2.23896e-05
0.000348988
5.70711e-05
7.07122e-05
3.05425e-05
-7.85206e-05
-0.000141048
9.72458e-05
0.000372421
-5.55141e-05
8.06523e-05
1.71942e-05
-2.48734e-05
5.20765e-06
-4.34779e-05
-4.76181e-06
1.41113e-06
8.88295e-06
-3.16095e-06
5.90838e-07
-0.000249991
1.92724e-06
7.12603e-06
-7.57671e-05
0.000121831
0.000125934
1.67982e-05
-0.000708879
-0.000106939
3.17084e-08
5.65713e-06
-2.69333e-05
-3.71185e-07
-4.62226e-08
3.13904e-07
-1.03998e-06
-1.83081e-06
3.4909e-06
-3.71349e-06
9.89732e-09
-1.60109e-07
-1.44924e-07
1.59786e-06
3.29335e-07
-2.50333e-06
2.0932e-06
1.41428e-06
2.76148e-06
7.47773e-07
5.33743e-07
2.8806e-06
-3.40599e-07
4.24073e-09
1.81147e-06
-5.53415e-06
4.85963e-07
-1.09681e-06
-1.89572e-07
7.92125e-10
5.05713e-08
1.40925e-08
-3.98362e-07
3.94791e-06
3.86094e-07
2.42398e-05
2.57958e-06
4.43011e-07
-2.32287e-06
-2.30045e-06
1.4484e-06
4.31725e-07
2.09767e-06
-4.66347e-07
-2.32999e-07
-2.89262e-07
6.55957e-09
7.52494e-08
3.98801e-05
-5.80372e-05
5.53294e-05
-2.52269e-05
2.32439e-06
9.0271e-07
-1.08404e-05
-3.9365e-06
4.02656e-05
4.4183e-06
-8.79501e-05
-0.00045942
-6.85554e-06
1.05215e-05
-9.31317e-06
1.15704e-05
7.53364e-08
-1.94967e-07
-1.22675e-07
1.32868e-08
7.03835e-09
-4.71004e-08
3.62526e-08
-9.29342e-09
-1.25733e-08
8.5091e-09
-3.49241e-09
4.72378e-10
-2.75196e-06
4.19551e-10
-2.09126e-09
2.2715e-10
1.41135e-10
1.46658e-06
1.79632e-07
-3.29257e-06
-7.84284e-07
1.94168e-06
4.46893e-07
9.51012e-07
2.00702e-08
-3.28468e-09
-3.39213e-07
-1.34255e-07
-1.23933e-08
-5.77384e-10
1.9838e-09
-6.44101e-08
