# vtk DataFile Version 2.0
Unstructured Grid by M++
ASCII
DATASET UNSTRUCTURED_GRID
POINTS 1089 float
  0.968750   0.906250 0
  0.968750   0.937500 0
  1.000000   0.906250 0
  1.000000   0.937500 0
  1.000000   0.968750 0
  0.906250   0.906250 0
  0.906250   0.875000 0
  0.906250   0.812500 0
  0.906250   0.843750 0
  0.937500   0.906250 0
  0.937500   0.937500 0
  0.937500   0.843750 0
  0.937500   0.875000 0
  0.968750   0.875000 0
  0.968750   0.656250 0
  0.968750   0.687500 0
  1.000000   0.656250 0
  1.000000   0.625000 0
  1.000000   0.687500 0
  0.906250   0.656250 0
  0.906250   0.687500 0
  0.906250   0.625000 0
  0.906250   0.531250 0
  0.906250   0.562500 0
  0.906250   0.593750 0
  0.937500   0.656250 0
  0.937500   0.687500 0
  0.937500   0.531250 0
  0.937500   0.562500 0
  0.937500   0.593750 0
  0.937500   0.625000 0
  0.968750   0.625000 0
  0.968750   0.593750 0
  1.000000   0.593750 0
  0.968750   0.562500 0
  1.000000   0.562500 0
  1.000000   0.531250 0
  0.968750   0.531250 0
  0.781250   1.000000 0
  0.812500   0.781250 0
  0.812500   0.812500 0
  0.875000   0.843750 0
  0.875000   0.812500 0
  0.875000   0.875000 0
  0.781250   0.781250 0
  0.843750   0.843750 0
  0.843750   0.812500 0
  0.875000   0.781250 0
  0.843750   0.781250 0
  0.781250   0.750000 0
  0.781250   0.718750 0
  0.781250   0.687500 0
  0.812500   0.750000 0
  0.812500   0.718750 0
  0.812500   0.531250 0
  0.812500   0.687500 0
  0.812500   0.656250 0
  0.812500   0.562500 0
  0.812500   0.593750 0
  0.812500   0.625000 0
  0.875000   0.687500 0
  0.875000   0.656250 0
  0.875000   0.593750 0
  0.875000   0.562500 0
  0.875000   0.625000 0
  0.781250   0.531250 0
  0.781250   0.562500 0
  0.781250   0.625000 0
  0.781250   0.593750 0
  0.781250   0.656250 0
  0.843750   0.656250 0
  0.843750   0.593750 0
  0.843750   0.562500 0
  0.843750   0.625000 0
  0.843750   0.687500 0
  0.843750   0.750000 0
  0.875000   0.531250 0
  0.843750   0.531250 0
  0.656250   0.906250 0
  0.656250   0.937500 0
  0.656250   1.000000 0
  0.656250   0.968750 0
  0.687500   1.000000 0
  0.687500   0.968750 0
  0.687500   0.937500 0
  0.718750   0.937500 0
  0.718750   0.968750 0
  0.718750   1.000000 0
  0.656250   0.781250 0
  0.656250   0.812500 0
  0.656250   0.843750 0
  0.656250   0.875000 0
  0.750000   0.968750 0
  0.750000   1.000000 0
  0.750000   0.656250 0
  0.750000   0.625000 0
  0.687500   0.656250 0
  0.687500   0.687500 0
  0.687500   0.625000 0
  0.718750   0.656250 0
  0.718750   0.687500 0
  0.718750   0.718750 0
  0.656250   0.531250 0
  0.656250   0.562500 0
  0.656250   0.656250 0
  0.656250   0.687500 0
  0.656250   0.750000 0
  0.656250   0.718750 0
  0.656250   0.625000 0
  0.656250   0.593750 0
  0.750000   0.687500 0
  0.750000   0.718750 0
  0.750000   0.750000 0
  0.687500   0.531250 0
  0.687500   0.562500 0
  0.687500   0.593750 0
  0.718750   0.625000 0
  0.750000   0.531250 0
  0.718750   0.531250 0
  0.750000   0.562500 0
  0.718750   0.562500 0
  0.718750   0.593750 0
  0.750000   0.593750 0
  0.562500   1.000000 0
  0.562500   0.968750 0
  0.562500   0.937500 0
  0.562500   0.906250 0
  0.562500   0.812500 0
  0.562500   0.843750 0
  0.562500   0.875000 0
  0.625000   0.937500 0
  0.625000   0.906250 0
  0.562500   0.781250 0
  0.625000   0.875000 0
  0.531250   1.000000 0
  0.531250   0.968750 0
  0.531250   0.937500 0
  0.531250   0.812500 0
  0.531250   0.875000 0
  0.531250   0.843750 0
  0.531250   0.906250 0
  0.593750   0.906250 0
  0.593750   0.843750 0
  0.593750   0.875000 0
  0.593750   0.812500 0
  0.625000   0.843750 0
  0.625000   0.812500 0
  0.593750   0.937500 0
  0.625000   1.000000 0
  0.593750   1.000000 0
  0.593750   0.968750 0
  0.625000   0.968750 0
  0.625000   0.781250 0
  0.593750   0.781250 0
  0.562500   0.531250 0
  0.562500   0.750000 0
  0.562500   0.718750 0
  0.562500   0.687500 0
  0.562500   0.656250 0
  0.562500   0.562500 0
  0.562500   0.593750 0
  0.562500   0.625000 0
  0.625000   0.687500 0
  0.625000   0.656250 0
  0.625000   0.593750 0
  0.625000   0.562500 0
  0.625000   0.625000 0
  0.531250   0.531250 0
  0.531250   0.750000 0
  0.531250   0.718750 0
  0.531250   0.687500 0
  0.531250   0.562500 0
  0.531250   0.625000 0
  0.531250   0.593750 0
  0.531250   0.656250 0
  0.593750   0.656250 0
  0.593750   0.593750 0
  0.593750   0.562500 0
  0.593750   0.625000 0
  0.593750   0.687500 0
  0.625000   0.750000 0
  0.593750   0.750000 0
  0.593750   0.718750 0
  0.625000   0.718750 0
  0.625000   0.531250 0
  0.593750   0.531250 0
  0.968750   0.406250 0
  0.968750   0.437500 0
  0.968750   0.468750 0
  0.968750   0.500000 0
  1.000000   0.406250 0
  1.000000   0.375000 0
  1.000000   0.437500 0
  1.000000   0.468750 0
  1.000000   0.500000 0
  0.906250   0.500000 0
  0.906250   0.406250 0
  0.906250   0.437500 0
  0.906250   0.281250 0
  0.906250   0.312500 0
  0.906250   0.343750 0
  0.906250   0.375000 0
  0.937500   0.406250 0
  0.937500   0.500000 0
  0.937500   0.468750 0
  0.937500   0.437500 0
  0.937500   0.281250 0
  0.937500   0.312500 0
  0.937500   0.343750 0
  0.937500   0.375000 0
  0.968750   0.375000 0
  1.000000   0.281250 0
  0.968750   0.281250 0
  1.000000   0.312500 0
  0.968750   0.312500 0
  0.968750   0.343750 0
  1.000000   0.343750 0
  0.968750   0.125000 0
  0.968750   0.156250 0
  0.968750   0.187500 0
  1.000000   0.000000 0
  1.000000   0.156250 0
  1.000000   0.125000 0
  1.000000   0.187500 0
  1.000000   0.218750 0
  0.531250   0.781250 0
  1.000000   0.250000 0
  0.906250   0.250000 0
  0.906250   0.218750 0
  0.937500   0.250000 0
  0.937500   0.218750 0
  0.968750   0.250000 0
  0.906250   0.031250 0
  0.906250   0.000000 0
  0.906250   0.062500 0
  0.906250   0.093750 0
  0.906250   0.125000 0
  0.937500   0.156250 0
  0.937500   0.031250 0
  0.937500   0.000000 0
  0.937500   0.062500 0
  0.937500   0.093750 0
  0.937500   0.125000 0
  1.000000   0.031250 0
  0.968750   0.031250 0
  0.968750   0.000000 0
  1.000000   0.062500 0
  0.968750   0.062500 0
  0.968750   0.093750 0
  1.000000   0.093750 0
  0.781250   0.312500 0
  0.781250   0.343750 0
  0.812500   0.500000 0
  0.812500   0.468750 0
  0.812500   0.437500 0
  0.812500   0.281250 0
  0.812500   0.312500 0
  0.812500   0.343750 0
  0.812500   0.375000 0
  0.875000   0.281250 0
  0.875000   0.406250 0
  0.875000   0.343750 0
  0.875000   0.312500 0
  0.875000   0.375000 0
  0.843750   0.281250 0
  0.843750   0.312500 0
  0.843750   0.375000 0
  0.843750   0.343750 0
  0.781250   0.500000 0
  0.781250   0.468750 0
  0.781250   0.437500 0
  0.781250   0.406250 0
  0.875000   0.500000 0
  0.843750   0.500000 0
  0.843750   0.468750 0
  0.875000   0.468750 0
  0.781250   0.281250 0
  0.843750   0.218750 0
  0.843750   0.250000 0
  0.843750   0.187500 0
  0.843750   0.156250 0
  0.875000   0.218750 0
  0.875000   0.250000 0
  0.875000   0.187500 0
  0.812500   0.062500 0
  0.812500   0.250000 0
  0.812500   0.218750 0
  0.812500   0.187500 0
  0.812500   0.156250 0
  0.812500   0.125000 0
  0.843750   0.093750 0
  0.843750   0.062500 0
  0.875000   0.125000 0
  0.875000   0.093750 0
  0.875000   0.062500 0
  0.781250   0.250000 0
  0.781250   0.218750 0
  0.781250   0.187500 0
  0.093750   0.937500 0
  0.125000   1.000000 0
  0.937500   0.718750 0
  0.250000   0.000000 0
  0.093750   0.968750 0
  0.125000   0.968750 0
  0.000000   0.718750 0
  0.000000   0.750000 0
  0.125000   0.531250 0
  0.125000   0.562500 0
  0.093750   0.531250 0
  0.031250   0.750000 0
  0.125000   0.468750 0
  0.156250   0.468750 0
  0.500000   0.375000 0
  0.156250   0.500000 0
  0.406250   0.406250 0
  0.406250   0.437500 0
  0.406250   0.500000 0
  0.406250   0.468750 0
  0.406250   0.375000 0
  0.750000   0.312500 0
  0.437500   0.406250 0
  0.437500   0.500000 0
  0.437500   0.468750 0
  0.437500   0.437500 0
  0.468750   0.437500 0
  0.468750   0.468750 0
  0.406250   0.281250 0
  0.406250   0.312500 0
  0.062500   0.375000 0
  0.406250   0.343750 0
  0.062500   0.406250 0
  0.500000   0.468750 0
  0.500000   0.500000 0
  0.437500   0.281250 0
  0.437500   0.312500 0
  0.437500   0.343750 0
  0.093750   0.406250 0
  0.437500   0.375000 0
  0.093750   0.437500 0
  0.468750   0.375000 0
  0.125000   0.437500 0
  0.500000   0.281250 0
  0.468750   0.281250 0
  0.500000   0.312500 0
  0.468750   0.312500 0
  0.468750   0.343750 0
  0.500000   0.343750 0
  0.843750   0.906250 0
  0.156250   0.187500 0
  0.468750   0.187500 0
  0.468750   0.218750 0
  0.468750   0.250000 0
  0.406250   0.031250 0
  0.750000   0.812500 0
  0.062500   0.093750 0
  0.406250   0.000000 0
  0.750000   0.781250 0
  0.062500   0.062500 0
  0.500000   0.187500 0
  0.500000   0.218750 0
  0.500000   0.250000 0
  0.437500   0.031250 0
  0.781250   0.812500 0
  0.093750   0.093750 0
  0.437500   0.000000 0
  0.437500   0.062500 0
  0.781250   0.843750 0
  0.093750   0.125000 0
  0.406250   0.187500 0
  0.406250   0.250000 0
  0.406250   0.218750 0
  0.437500   0.250000 0
  0.437500   0.218750 0
  0.437500   0.187500 0
  0.500000   0.000000 0
  0.500000   0.031250 0
  0.468750   0.031250 0
  0.468750   0.000000 0
  0.500000   0.062500 0
  0.468750   0.062500 0
  0.812500   0.843750 0
  0.125000   0.125000 0
  0.812500   0.875000 0
  0.125000   0.156250 0
  0.500000   0.093750 0
  0.843750   0.875000 0
  0.156250   0.156250 0
  1.000000   1.000000 0
  0.312500   0.281250 0
  0.656250   0.218750 0
  0.437500   0.156250 0
  0.312500   0.500000 0
  0.437500   0.125000 0
  0.312500   0.468750 0
  0.437500   0.093750 0
  0.781250   0.031250 0
  0.312500   0.437500 0
  0.312500   0.406250 0
  0.312500   0.312500 0
  0.312500   0.343750 0
  0.312500   0.375000 0
  0.375000   0.437500 0
  0.375000   0.406250 0
  0.375000   0.343750 0
  0.718750   0.281250 0
  0.375000   0.375000 0
  0.968750   1.000000 0
  0.281250   0.281250 0
  0.406250   0.156250 0
  0.281250   0.500000 0
  0.406250   0.125000 0
  0.281250   0.468750 0
[...]
CELL_DATA 1024
SCALARS scalar_value float 1
LOOKUP_TABLE default
0.161485
0.0770915
0.0512608
0.0151199
0.0810644
0.0276772
-0.0125365
0.0909621
0.0529756
0.0121362
0.0406294
0.01339
0.0424129
-0.00777314
-0.0304188
-0.00453206
-0.0327193
-0.0091114
0.0669299
0.00240836
0.0249752
0.00674764
-0.00666637
-0.0111041
0.0152651
0.00276524
0.0349652
0.0694645
0.0419919
0.0958086
0.0750028
-0.0495542
-0.0164411
0.0158913
0.00567027
0.00307811
0.0147555
0.00851751
-0.012656
0.0257971
0.0057923
0.00430376
0.0347688
0.00673014
0.0171086
-0.0440363
0.028953
0.0195892
-0.00729513
-0.0197006
0.0847478
0.0823603
0.0505272
0.00114326
0.0123938
0.00415284
0.0130127
0.00980247
0.0137223
0.00214638
0.0221018
0.0168308
0.00821045
0.00041723
0.000469752
0.00917206
2.65395e-05
-0.000270488
0.120701
0.479424
-0.000854583
0.00669383
-0.000273297
6.214e-05
0.712027
-0.012802
0.46786
0.280023
0.211171
0.00064174
-0.0513815
0.00248475
-0.00080775
0.00450122
-0.0674054
-0.0282072
-0.120326
0.0610607
-0.000292505
1.43149e-05
0.000805124
-0.021562
0.160168
0.0247254
-0.0218895
0.319969
-0.106342
0.0538257
-0.0417464
-0.0914926
0.00932943
-0.0484154
-0.0279216
0.0347775
-0.0558047
0.0617015
0.0585166
0.0613664
0.194794
-0.0904363
-0.231399
-0.000991615
-0.00106099
0.0369903
-0.0416705
0.0786349
0.0722512
0.0578958
-0.0350783
0.0460755
-0.0342802
0.021251
0.0333191
-0.0632006
0.00138052
-0.0324562
0.0234381
0.00948079
-0.109986
-0.0344552
0.00601754
3.68559
4.15491
3.44911
3.07746
2.39363
0.512039
0.000141777
0.00117044
2.05696
2.07627
2.23904
2.78858
0.894702
0.0471219
0.000422243
-1.60028e-05
0.115165
-0.00989765
-0.000302436
1.29326
0.563027
-0.000205566
2.98375e-05
-0.0355783
0.0084709
0.766752
2.02763
0.960653
0.0641485
3.27125
4.61316
4.48606
4.27492
4.46556
3.75784
3.31985
4.12955
4.65274
4.44066
4.54494
4.63991
4.55184
4.33961
4.54137
4.6545
0.0106927
-0.00394659
1.90334
1.80584
0.362521
0.617816
2.58413
0.694311
2.1733
0.657965
4.05038
3.79364
3.45024
3.52999
4.28042
4.64942
0.415864
0.00289378
0.0244508
-0.012378
-0.0228664
0.00967915
0.00543013
1.28595
1.93357
2.20657
1.96677
0.873886
-1.74119e-06
-0.0276911
-0.0128536
-0.0588123
-0.0339924
0.217869
0.00262997
0.36468
2.57641
-0.0103702
3.77444
3.3465
4.38015
4.14869
1.41489
2.97056
4.16539
4.15259
3.61474
3.90335
-0.00305794
-0.0115386
0.019206
-0.011896
-0.00834816
-0.0294761
-0.0329925
-0.0289147
-0.0123667
-0.0684607
-0.044466
-0.0137241
-0.0244524
-0.0107366
2.32137
4.23133
4.5481
-0.0752914
0.237178
0.770685
3.09095
-0.0625591
0.0306244
1.14699
2.43465
1.68462
2.45558
1.71568
0.00634579
0.159854
0.078427
0.113428
-0.000172019
0.000803891
-1.53867e-05
-1.4917e-05
1.1153e-05
-0.000137695
1.91175e-06
5.14204e-05
-1.24843e-07
1.39626e-06
4.55527e-08
1.26334e-07
0.000599918
-1.80259e-05
1.00154e-06
-3.02155e-07
6.6367e-06
-1.38383e-05
3.71465e-06
0.00017104
2.20516e-06
3.46288e-06
-3.65826e-07
-1.38498e-06
1.11761e-06
1.92296e-07
-3.02287e-07
-1.68929e-07
-2.83717e-08
-1.0413e-08
2.51691e-08
6.07882e-08
5.2837e-10
-6.18837e-09
-5.74918e-10
0
-7.64605e-07
-2.0154e-06
-3.7697e-10
3.44522e-08
1.27266e-07
-1.40753e-07
2.48565e-07
-8.32801e-07
-5.88554e-08
-3.4841e-08
4.41102e-09
7.19936e-08
-6.58632e-09
2.47295e-08
1.74777e-07
3.4547e-08
9.56062e-09
-3.70682e-08
2.02863e-08
-6.56856e-08
-3.50949e-08
-1.80101e-09
-7.33144e-09
1.17485e-08
-1.54112e-08
2.01694e-09
1.91206e-08
6.20362e-09
-0.0392244
0.000284482
-0.0118707
-0.0383474
-0.000286311
-0.00058724
0.000330012
-2.46314e-06
3.65184
3.40068
2.48655
0.949488
0.00569398
0.622856
-0.00642178
-0.00384874
-1.84853e-05
-0.0140774
-0.0246278
-0.00709165
-5.79295e-05
-8.03565e-05
9.09063e-05
0.00029246
-0.000138427
-0.0013365
7.6202e-06
-0.0017057
-0.00188253
-1.18565e-05
-7.68452e-06
-1.82093e-05
-0.000175001
-0.000300229
-0.000515965
-5.76257e-05
-1.15595e-05
-2.05322e-05
-1.81793e-05
-4.17159e-07
-3.85423e-07
5.26512e-06
-6.41042e-05
-5.1715e-05
1.22981e-05
1.81885e-05
8.60938e-06
-7.12824e-06
-4.05108e-06
-3.68519e-05
-1.78429e-05
3.21744e-06
2.14378e-06
-1.45897e-06
2.56781e-06
-3.18375e-06
-5.09736e-07
2.13256e-06
-4.3843e-06
-8.96493e-07
1.00356e-07
-1.79209e-07
-1.94593e-06
1.67698e-07
4.58505
4.64071
3.73372
0.740298
4.62759
4.65876
4.38573
3.81114
0.911204
4.67863
4.67029
4.60969
4.61114
4.68229
4.63074
3.78985
4.03381
4.63702
4.32604
4.63072
4.14371
2.83151
0.50271
-0.0233304
0.00793545
0.0293087
3.89065
4.28366
0.491628
2.87033
1.60627
0.0300901
0.000493259
-0.000706591
0.000408944
0.000142852
0.000765665
-3.78725e-05
-0.00208111
-0.000209691
-0.00191503
8.00714e-05
-1.73147e-05
0.000441397
0.000289205
-0.00488349
-0.00886377
-0.000523648
-0.000517554
-0.0048285
-0.00789756
0.00144981
0.00101834
-9.53427e-05
-0.00458061
6.9511e-05
0.000237391
-6.76598e-05
0.00024318
-8.09933e-07
-2.79887e-05
-0.000291485
-0.000232541
-0.000105239
3.67602
4.40762
0.719438
2.41099
4.62128
4.66956
3.95744
4.49335
2.95782
1.49797
4.61315
4.68578
4.11584
4.64969
4.25099
1.37982
4.42025
2.32062
4.6543
4.63718
2.49106
1.11014
3.7102
4.41459
0.884521
4.64647
4.23591
4.58451
4.60289
3.25876
1.9585
2.41199
0.00644385
0.00343527
-0.0154095
-0.00582027
0.00293609
0.00112496
0.000175658
0.000438765
0.000252994
0.000498144
-0.00531884
0.00103168
-0.0118565
-0.0135468
-0.00688296
-0.00263238
0.000629616
0.00206563
0.00039809
0.000476042
0.000332318
0.00013743
0.00036812
-4.17935e-05
0.000653679
0.00173385
0.00658858
0.039719
0.00428782
0.00285549
0.000297008
0.000134547
2.27863
1.36985
3.11699
3.70612
3.82631
3.28903
3.5617
3.70506
3.68707
4.16215
0.936861
1.31313
3.21465
3.81857
2.47609
1.80753
-0.168526
-0.064951
-0.101994
3.16558
-0.0302047
-0.00791982
0.0991664
0.574518
0.0051903
-0.00482434
4.30552
-0.0400141
-0.0157334
-0.00737896
0.00276751
-1.7251e-05
4.34233
-0.0772234
0.728184
3.4599
3.26368
4.21267
4.50531
4.16231
4.08396
3.96695
3.78512
4.35687
4.31686
4.61029
4.65627
4.35215
4.52715
4.21332
4.22272
4.24031
4.40239
4.18594
4.38612
4.27079
3.06482
3.70636
0.0466839
0.236267
0.415713
-0.13205
0.274758
0.478496
0.000385412
0.00244728
-0.00654678
0.0162011
0.00781466
-0.0146735
-0.0115952
0.00662217
0.0349497
-0.00597762
0.00487171
0.00419414
0.0121346
0.0121609
0.00948144
0.00309076
-0.00965193
-0.0380777
-0.0460804
-0.0541046
-0.062228
-0.0709013
-0.037646
-0.0341971
-0.154988
-0.165562
-0.108861
0.0589029
-0.0614644
-0.119589
-0.176178
-0.17007
0.0323802
0.0101299
-0.00791908
-0.00465134
-0.00713987
-0.00394945
-0.00458739
3.90929e-05
0.00228186
0.00167331
-0.00291611
-0.00239385
-0.000103745
0.000574141
-0.00191313
-0.00234735
-0.000919394
0.0581246
0.0581603
0.0249117
0.026625
0.0247891
0.00137288
0.00975394
0.919336
0.173139
0.397845
-0.013154
-0.0544041
0.557282
0.705017
0.624323
0.138436
0.303315
-0.0121722
-0.0154843
0.0728734
0.00695837
-0.154655
-0.0135555
-0.0181098
-0.0167966
-0.00500213
-0.169815
0.827993
-0.0487158
0.253197
0.419179
0.0951246
-0.0754463
-0.00663726
-0.0846943
-0.125368
-0.00339537
-0.0953409
0.00205527
-0.017087
0.000593821
0.0440299
0.00775184
0.00450497
0.00109951
0.00686132
-0.00401828
-0.000672871
-0.00478537
-0.000180878
-0.000247606
-0.000477561
-0.000395674
-0.0133497
-0.0161691
-0.000186275
-7.08506e-05
0.0011663
-0.00347156
-0.00885743
-0.00366261
1.66174e-05
-0.000136287
-0.000214846
-0.00115789
0.00129765
-0.00227041
-0.000128114
-2.83271e-05
-0.000342019
0.00114161
-0.000785028
-0.000161365
-0.000496563
-0.000700577
-0.000741118
-0.00117984
0.000330211
-0.000967966
0.0466325
0.0491811
-0.0120641
0.0404362
0.0456896
0.100236
0.188601
-0.0690799
0.151501
-0.00641378
-0.0582712
0.108139
0.185499
0.193228
0.196146
0.0360855
-0.00395403
0.0465423
-0.0089514
-0.0617135
-0.0882258
-0.0205407
-0.00675697
0.0691936
0.00201508
0.109664
0.131373
0.0585748
0.19678
-0.0744186
0.053646
0.0259021
-0.000393921
-0.000106068
-0.00461737
0.000107196
3.0454e-05
3.06949e-06
-1.60758e-05
-4.07835e-06
-0.00054579
-0.000176784
-0.000102533
-0.00398268
3.1196e-05
7.57547e-05
-1.19233e-05
-6.18577e-07
-6.29691e-05
0.000643483
-0.00452392
-0.000734488
-0.000324816
-9.4819e-06
5.81848e-06
0.000110862
4.93998e-05
-0.000523444
-0.000287321
-0.00179566
-0.00399199
-8.11006e-06
4.32831e-05
0.00016054
4.76651
4.70096
0.00790677
-0.00405035
0.38044
3.07231
4.39392
4.59853
4.65231
4.63762
-0.0142788
-0.00584055
3.07133
0.59422
4.24007
4.65076
3.40371
2.1182
4.66975
4.59266
4.33301
4.65298
0.00118895
2.84866
4.42878
4.40811
4.57082
4.7963
4.35298
2.8428
0.436633
0.0182253
0.00683923
0.00439314
5.93083e-05
-6.57309e-06
-8.86516e-05
0.000269283
0.00312073
0.000129003
-0.00010162
8.24497e-05
-3.33221e-05
0.00014131
-0.000193616
-0.0005096
-0.000106041
-0.00329327
0.000508641
0.00399587
-0.0111433
-0.000657955
0.00357412
0.00526506
-0.00020246
-6.77482e-05
3.12389e-05
-0.0106359
0.00105472
-0.00021894
0.00102789
0.000317323
0.000117846
-5.08714e-05
0.000226991
-0.00172368
-0.00400151
-0.000535497
4.69576e-05
-6.70153e-05
-0.000155684
-0.00117245
0.000117849
-0.000979377
-0.000173698
0.000111306
4.47015e-05
1.56832
1.25902
9.92866e-05
-4.97306e-05
-5.8709e-06
-0.0704276
-0.0245969
-0.0281536
1.50086
0.966189
-0.00427483
0.25324
-3.0128e-05
-0.00031335
0.0421766
-0.000164841
0.0002473
0.0296034
-0.000528342
-3.6248e-05
1.50287e-05
-6.54228e-05
9.83711e-05
2.99718e-06
4.66127e-06
1.16066e-06
-7.57019e-06
4.54927e-05
-5.11878e-07
2.32121e-06
2.39178e-06
-1.34083e-06
2.37751e-07
-0.000132519
4.90749e-05
-6.90262e-05
-0.000528188
2.05285e-05
-6.17019e-05
5.12397e-07
-3.36408e-06
1.20263e-07
4.66869e-08
-0.000116214
0.000180696
5.65068e-05
-6.99102e-05
1.14781e-05
2.49569e-06
-1.21761e-06
5.7861e-06
2.25367e-06
4.57638e-07
3.00166e-05
-4.64188e-06
8.46731e-05
5.696e-05
4.53634e-06
-2.21386e-06
3.18909e-06
-1.20419e-05
-9.39534e-06
3.85693e-05
1.53816e-05
2.07353e-05
7.07643e-07
-6.31701e-07
1.8563e-06
-4.91836e-06
2.65452e-06
2.41115e-06
5.73604e-06
5.5099e-06
1.62821e-06
1.06393e-05
2.00358e-05
2.97066e-07
-5.2559e-05
2.15933e-05
0.000153753
-9.60539e-06
-0.000132162
0.000147838
-5.55184e-09
4.0645e-06
6.29863e-07
4.17191e-08
-3.67765e-08
2.40943e-07
-7.56537e-07
1.31031e-06
-2.40207e-06
4.99714e-07
-2.74154e-07
3.6157e-09
-2.37788e-08
2.91214e-08
2.59551e-08
-3.6231e-08
9.24754e-08
2.96476e-06
-8.01611e-06
-1.43794e-07
5.87178e-07
3.21826e-07
3.06546e-08
3.22801e-08
5.14538e-07
-1.42443e-06
4.1508e-08
-1.896e-07
-8.63288e-08
1.79546e-08
3.06174e-09
-1.85161e-09
4.79398e-06
9.01448e-07
3.39367e-06
2.55312e-06
-1.10913e-07
-3.92032e-07
-3.24706e-07
1.56444e-07
1.40663e-07
-1.98547e-08
8.97532e-08
5.65739e-08
-1.51005e-08
-4.03607e-08
1.83628e-08
-1.26003e-09
6.64012e-06
3.37565e-06
-1.05367e-06
-8.08923e-07
1.44687e-07
9.14905e-08
-1.38231e-07
-3.76938e-07
-5.63445e-07
-1.6382e-06
-1.23823e-06
-2.22871e-05
-5.47406e-08
-4.15296e-07
-2.81438e-08
1.45836e-07
-7.57948e-09
-1.44625e-09
2.02803e-09
1.55978e-10
0
1.24321e-09
-1.14233e-09
1.62203e-09
4.35651e-10
-3.85837e-10
2.73113e-10
0
4.72805e-07
0
-1.57677e-10
0
0
-2.6563e-08
5.25803e-08
-2.84937e-07
7.36588e-08
-5.06983e-07
-2.26494e-08
3.44244e-08
2.91006e-10
-1.85017e-08
-1.30773e-08
3.57926e-08
2.75039e-09
0
-1.02365e-09
-3.7106e-09
