# vtk DataFile Version 2.0
Unstructured Grid by M++
ASCII
DATASET UNSTRUCTURED_GRID
POINTS 1089 float
  0.968750   0.906250 0
  0.968750   0.937500 0
  1.000000   0.906250 0
  1.000000   0.937500 0
  1.000000   0.968750 0
  0.906250   0.906250 0
  0.906250   0.875000 0
  0.906250   0.812500 0
  0.906250   0.843750 0
  0.937500   0.906250 0
  0.937500   0.937500 0
  0.937500   0.843750 0
  0.937500   0.875000 0
  0.968750   0.875000 0
  0.968750   0.656250 0
  0.968750   0.687500 0
  1.000000   0.656250 0
  1.000000   0.625000 0
  1.000000   0.687500 0
  0.906250   0.656250 0
  0.906250   0.687500 0
  0.906250   0.625000 0
  0.906250   0.531250 0
  0.906250   0.562500 0
  0.906250   0.593750 0
  0.937500   0.656250 0
  0.937500   0.687500 0
  0.937500   0.531250 0
  0.937500   0.562500 0
  0.937500   0.593750 0
  0.937500   0.625000 0
  0.968750   0.625000 0
  0.968750   0.593750 0
  1.000000   0.593750 0
  0.968750   0.562500 0
  1.000000   0.562500 0
  1.000000   0.531250 0
  0.968750   0.531250 0
  0.781250   1.000000 0
  0.812500   0.781250 0
  0.812500   0.812500 0
  0.875000   0.843750 0
  0.875000   0.812500 0
  0.875000   0.875000 0
  0.781250   0.781250 0
  0.843750   0.843750 0
  0.843750   0.812500 0
  0.875000   0.781250 0
  0.843750   0.781250 0
  0.781250   0.750000 0
  0.781250   0.718750 0
  0.781250   0.687500 0
  0.812500   0.750000 0
  0.812500   0.718750 0
  0.812500   0.531250 0
  0.812500   0.687500 0
  0.812500   0.656250 0
  0.812500   0.562500 0
  0.812500   0.593750 0
  0.812500   0.625000 0
  0.875000   0.687500 0
  0.875000   0.656250 0
  0.875000   0.593750 0
  0.875000   0.562500 0
  0.875000   0.625000 0
  0.781250   0.531250 0
  0.781250   0.562500 0
  0.781250   0.625000 0
  0.781250   0.593750 0
  0.781250   0.656250 0
  0.843750   0.656250 0
  0.843750   0.593750 0
  0.843750   0.562500 0
  0.843750   0.625000 0
  0.843750   0.687500 0
  0.843750   0.750000 0
  0.875000   0.531250 0
  0.843750   0.531250 0
  0.656250   0.906250 0
  0.656250   0.937500 0
  0.656250   1.000000 0
  0.656250   0.968750 0
  0.687500   1.000000 0
  0.687500   0.968750 0
  0.687500   0.937500 0
  0.718750   0.937500 0
  0.718750   0.968750 0
  0.718750   1.000000 0
  0.656250   0.781250 0
  0.656250   0.812500 0
  0.656250   0.843750 0
  0.656250   0.875000 0
  0.750000   0.968750 0
  0.750000   1.000000 0
  0.750000   0.656250 0
  0.750000   0.625000 0
  0.687500   0.656250 0
  0.687500   0.687500 0
  0.687500   0.625000 0
  0.718750   0.656250 0
  0.718750   0.687500 0
  0.718750   0.718750 0
  0.656250   0.531250 0
  0.656250   0.562500 0
  0.656250   0.656250 0
  0.656250   0.687500 0
  0.656250   0.750000 0
  0.656250   0.718750 0
  0.656250   0.625000 0
  0.656250   0.593750 0
  0.750000   0.687500 0
  0.750000   0.718750 0
  0.750000   0.750000 0
  0.687500   0.531250 0
  0.687500   0.562500 0
  0.687500   0.593750 0
  0.718750   0.625000 0
  0.750000   0.531250 0
  0.718750   0.531250 0
  0.750000   0.562500 0
  0.718750   0.562500 0
  0.718750   0.593750 0
  0.750000   0.593750 0
  0.562500   1.000000 0
  0.562500   0.968750 0
  0.562500   0.937500 0
  0.562500   0.906250 0
  0.562500   0.812500 0
  0.562500   0.843750 0
  0.562500   0.875000 0
  0.625000   0.937500 0
  0.625000   0.906250 0
  0.562500   0.781250 0
  0.625000   0.875000 0
  0.531250   1.000000 0
  0.531250   0.968750 0
  0.531250   0.937500 0
  0.531250   0.812500 0
  0.531250   0.875000 0
  0.531250   0.843750 0
  0.531250   0.906250 0
  0.593750   0.906250 0
  0.593750   0.843750 0
  0.593750   0.875000 0
  0.593750   0.812500 0
  0.625000   0.843750 0
  0.625000   0.812500 0
  0.593750   0.937500 0
  0.625000   1.000000 0
  0.593750   1.000000 0
  0.593750   0.968750 0
  0.625000   0.968750 0
  0.625000   0.781250 0
  0.593750   0.781250 0
  0.562500   0.531250 0
  0.562500   0.750000 0
  0.562500   0.718750 0
  0.562500   0.687500 0
  0.562500   0.656250 0
  0.562500   0.562500 0
  0.562500   0.593750 0
  0.562500   0.625000 0
  0.625000   0.687500 0
  0.625000   0.656250 0
  0.625000   0.593750 0
  0.625000   0.562500 0
  0.625000   0.625000 0
  0.531250   0.531250 0
  0.531250   0.750000 0
  0.531250   0.718750 0
  0.531250   0.687500 0
  0.531250   0.562500 0
  0.531250   0.625000 0
  0.531250   0.593750 0
  0.531250   0.656250 0
  0.593750   0.656250 0
  0.593750   0.593750 0
  0.593750   0.562500 0
  0.593750   0.625000 0
  0.593750   0.687500 0
  0.625000   0.750000 0
  0.593750   0.750000 0
  0.593750   0.718750 0
  0.625000   0.718750 0
  0.625000   0.531250 0
  0.593750   0.531250 0
  0.968750   0.406250 0
  0.968750   0.437500 0
  0.968750   0.468750 0
  0.968750   0.500000 0
  1.000000   0.406250 0
  1.000000   0.375000 0
  1.000000   0.437500 0
  1.000000   0.468750 0
  1.000000   0.500000 0
  0.906250   0.500000 0
  0.906250   0.406250 0
  0.906250   0.437500 0
  0.906250   0.281250 0
  0.906250   0.312500 0
  0.906250   0.343750 0
  0.906250   0.375000 0
  0.937500   0.406250 0
  0.937500   0.500000 0
  0.937500   0.468750 0
  0.937500   0.437500 0
  0.937500   0.281250 0
  0.937500   0.312500 0
  0.937500   0.343750 0
  0.937500   0.375000 0
  0.968750   0.375000 0
  1.000000   0.281250 0
  0.968750   0.281250 0
  1.000000   0.312500 0
  0.968750   0.312500 0
  0.968750   0.343750 0
  1.000000   0.343750 0
  0.968750   0.125000 0
  0.968750   0.156250 0
  0.968750   0.187500 0
  1.000000   0.000000 0
  1.000000   0.156250 0
  1.000000   0.125000 0
  1.000000   0.187500 0
  1.000000   0.218750 0
  0.531250   0.781250 0
  1.000000   0.250000 0
  0.906250   0.250000 0
  0.906250   0.218750 0
  0.937500   0.250000 0
  0.937500   0.218750 0
  0.968750   0.250000 0
  0.906250   0.031250 0
  0.906250   0.000000 0
  0.906250   0.062500 0
  0.906250   0.093750 0
  0.906250   0.125000 0
  0.937500   0.156250 0
  0.937500   0.031250 0
  0.937500   0.000000 0
  0.937500   0.062500 0
  0.937500   0.093750 0
  0.937500   0.125000 0
  1.000000   0.031250 0
  0.968750   0.031250 0
  0.968750   0.000000 0
  1.000000   0.062500 0
  0.968750   0.062500 0
  0.968750   0.093750 0
  1.000000   0.093750 0
  0.781250   0.312500 0
  0.781250   0.343750 0
  0.812500   0.500000 0
  0.812500   0.468750 0
  0.812500   0.437500 0
  0.812500   0.281250 0
  0.812500   0.312500 0
  0.812500   0.343750 0
  0.812500   0.375000 0
  0.875000   0.281250 0
  0.875000   0.406250 0
  0.875000   0.343750 0
  0.875000   0.312500 0
  0.875000   0.375000 0
  0.843750   0.281250 0
  0.843750   0.312500 0
  0.843750   0.375000 0
  0.843750   0.343750 0
  0.781250   0.500000 0
  0.781250   0.468750 0
  0.781250   0.437500 0
  0.781250   0.406250 0
  0.875000   0.500000 0
  0.843750   0.500000 0
  0.843750   0.468750 0
  0.875000   0.468750 0
  0.781250   0.281250 0
  0.843750   0.218750 0
  0.843750   0.250000 0
  0.843750   0.187500 0
  0.843750   0.156250 0
  0.875000   0.218750 0
  0.875000   0.250000 0
  0.875000   0.187500 0
  0.812500   0.062500 0
  0.812500   0.250000 0
  0.812500   0.218750 0
  0.812500   0.187500 0
  0.812500   0.156250 0
  0.812500   0.125000 0
  0.843750   0.093750 0
  0.843750   0.062500 0
  0.875000   0.125000 0
  0.875000   0.093750 0
  0.875000   0.062500 0
  0.781250   0.250000 0
  0.781250   0.218750 0
  0.781250   0.187500 0
  0.093750   0.937500 0
  0.125000   1.000000 0
  0.937500   0.718750 0
  0.250000   0.000000 0
  0.093750   0.968750 0
  0.125000   0.968750 0
  0.000000   0.718750 0
  0.000000   0.750000 0
  0.125000   0.531250 0
  0.125000   0.562500 0
  0.093750   0.531250 0
  0.031250   0.750000 0
  0.125000   0.468750 0
  0.156250   0.468750 0
  0.500000   0.375000 0
  0.156250   0.500000 0
  0.406250   0.406250 0
  0.406250   0.437500 0
  0.406250   0.500000 0
  0.406250   0.468750 0
  0.406250   0.375000 0
  0.750000   0.312500 0
  0.437500   0.406250 0
  0.437500   0.500000 0
  0.437500   0.468750 0
  0.437500   0.437500 0
  0.468750   0.437500 0
  0.468750   0.468750 0
  0.406250   0.281250 0
  0.406250   0.312500 0
  0.062500   0.375000 0
  0.406250   0.343750 0
  0.062500   0.406250 0
  0.500000   0.468750 0
  0.500000   0.500000 0
  0.437500   0.281250 0
  0.437500   0.312500 0
  0.437500   0.343750 0
  0.093750   0.406250 0
  0.437500   0.375000 0
  0.093750   0.437500 0
  0.468750   0.375000 0
  0.125000   0.437500 0
  0.500000   0.281250 0
  0.468750   0.281250 0
  0.500000   0.312500 0
  0.468750   0.312500 0
  0.468750   0.343750 0
  0.500000   0.343750 0
  0.843750   0.906250 0
  0.156250   0.187500 0
  0.468750   0.187500 0
  0.468750   0.218750 0
  0.468750   0.250000 0
  0.406250   0.031250 0
  0.750000   0.812500 0
  0.062500   0.093750 0
  0.406250   0.000000 0
  0.750000   0.781250 0
  0.062500   0.062500 0
  0.500000   0.187500 0
  0.500000   0.218750 0
  0.500000   0.250000 0
  0.437500   0.031250 0
  0.781250   0.812500 0
  0.093750   0.093750 0
  0.437500   0.000000 0
  0.437500   0.062500 0
  0.781250   0.843750 0
  0.093750   0.125000 0
  0.406250   0.187500 0
  0.406250   0.250000 0
  0.406250   0.218750 0
  0.437500   0.250000 0
  0.437500   0.218750 0
  0.437500   0.187500 0
  0.500000   0.000000 0
  0.500000   0.031250 0
  0.468750   0.031250 0
  0.468750   0.000000 0
  0.500000   0.062500 0
  0.468750   0.062500 0
  0.812500   0.843750 0
  0.125000   0.125000 0
  0.812500   0.875000 0
  0.125000   0.156250 0
  0.500000   0.093750 0
  0.843750   0.875000 0
  0.156250   0.156250 0
  1.000000   1.000000 0
  0.312500   0.281250 0
  0.656250   0.218750 0
  0.437500   0.156250 0
  0.312500   0.500000 0
  0.437500   0.125000 0
  0.312500   0.468750 0
  0.437500   0.093750 0
  0.781250   0.031250 0
  0.312500   0.437500 0
  0.312500   0.406250 0
  0.312500   0.312500 0
  0.312500   0.343750 0
  0.312500   0.375000 0
  0.375000   0.437500 0
  0.375000   0.406250 0
  0.375000   0.343750 0
  0.718750   0.281250 0
  0.375000   0.375000 0
  0.968750   1.000000 0
  0.281250   0.281250 0
  0.406250   0.156250 0
  0.281250   0.500000 0
  0.406250   0.125000 0
  0.281250   0.468750 0
[...]
CELL_DATA 1024
SCALARS scalar_value float 1
LOOKUP_TABLE default
-0.0242756
0.110635
0.0420207
0.00283078
0.0156292
0.185561
0.108488
-0.0132514
0.0581336
0.0148833
0.0453916
0.10738
0.0180562
0.0719851
0.0484824
-0.0292027
0.0266568
0.0500467
0.101736
-0.0157763
-0.00217131
0.0685638
0.00948858
0.00924292
0.0202925
-0.0285605
0.0674775
0.0520356
0.061937
0.00666751
-0.014209
0.0828848
0.0304513
0.0424912
-0.00418853
-0.00504935
-0.00249159
-0.00299834
0.0169284
0.0320821
-0.0062151
-0.00746688
-0.0122434
0.00574072
0.105344
0.070797
0.00295732
0.0242455
-0.0192652
-0.0625393
-0.00852178
0.0220058
0.037796
-0.00179548
0.000654041
-0.00320753
-0.00246283
-0.00380347
0.013063
-0.00163918
0.00193466
-0.00284062
-0.00311458
-0.00061297
0.0284272
0.231029
0.000190558
-0.00114853
0.335673
-0.00345781
0.00734402
0.101234
-0.0010384
0.00089379
0.199275
0.529263
0.074577
0.0334088
0.0185587
-0.0840461
-0.0154713
0.0136523
-0.00541619
0.0481385
0.0937235
-0.0527463
0.041023
0.116195
-0.0135035
0.000132837
-0.0479569
0.14912
-0.00566967
-0.00468755
-0.0436973
-0.158616
-0.0138638
0.00127053
0.00524947
0.0856656
0.0066068
-0.00382154
-0.00790793
0.025896
0.0126526
-0.0483032
0.084586
-0.0245447
-0.0258255
0.0501941
0.096737
0.00328449
0.00498989
-0.00288026
0.00147548
-0.0228751
-0.0331037
0.0328711
0.0164355
-0.0249005
0.0281249
-0.00806827
-0.00859752
0.0190038
-0.00525897
0.0949415
0.124017
-0.00637812
-0.07944
2.07788
0.666596
0.226503
0.414641
0.229766
0.65243
2.20977
2.77117
0.00727513
0.377004
0.0806193
0.0109979
0.371638
-0.146242
1.7034
1.2211
0.00889317
0.000968562
0.794194
0.27258
-0.038791
0.106669
-0.0113943
0.00723458
0.00945518
0.849343
-0.0506578
0.923141
-0.00977063
0.055584
-0.0799659
0.0487663
3.73446
2.25315
4.60992
4.61649
4.55776
4.39801
4.26693
3.84674
1.35165
4.66363
4.64079
3.16517
4.54384
1.41594
1.50372
0.0210373
-0.0884025
0.0498151
-0.0520817
-0.0017816
-0.0720941
1.27879
-0.0213487
-0.000623155
0.0744701
-0.0504522
0.0954252
-0.0237176
1.15769
3.40396
4.56171
4.14937
3.42895
3.86952
1.9771
2.02122
1.62805
1.00598
4.32224
4.5028
4.60417
4.46125
3.07697
0.620595
1.14422
1.72598
0.437299
-0.0400101
3.54566
3.15537
3.1572
3.15237
2.56024
2.3694
2.46036
3.65705
2.72215
3.79937
4.02953
4.49382
4.6794
4.19177
4.33892
-0.0016899
-0.040423
0.932721
0.0318376
-0.0616805
-0.0744241
-0.0921716
-0.0486676
-0.0386215
-0.145889
-0.118087
-0.0983652
-0.0677569
0.265955
4.15458
4.55703
4.4985
-0.0309562
0.721502
2.78012
4.54649
1.25518
1.40523
3.44589
4.13638
3.72797
4.17289
3.41347
0.852583
0.918627
1.51221
1.52968
-0.00138803
-0.00403867
1.27794e-07
-3.5021e-06
-4.37552e-06
-0.000167564
-1.28662e-05
-0.00012795
7.80591e-08
1.13508e-07
8.40923e-09
-4.58758e-07
-0.00211885
-0.000323123
9.88774e-08
1.37181e-07
-1.63235e-09
-2.22553e-05
-6.36541e-05
-0.000516156
2.43559e-06
-4.09209e-07
-3.30122e-08
-3.12971e-06
-8.77418e-08
4.97525e-09
-1.16669e-08
2.61273e-09
2.96095e-09
5.16859e-09
-1.73097e-08
-9.84148e-09
2.75139e-10
-2.03021e-09
-2.11323e-10
0
-6.83422e-09
-1.36163e-06
1.0529e-07
-3.01881e-08
-1.667e-07
1.76454e-07
-9.05212e-08
-6.90566e-08
7.32563e-08
-4.09165e-08
-2.43728e-09
4.06126e-09
1.24767e-08
-2.90142e-08
9.68653e-08
3.31264e-09
2.72361e-09
-7.51739e-09
4.684e-09
7.35962e-09
-2.53071e-09
8.11692e-10
-1.30796e-09
9.92688e-10
-1.03518e-10
5.83317e-10
-4.78559e-10
2.27399e-10
-0.0307023
-0.000864547
0.0761212
-0.0345595
-0.00069699
-0.000664176
0.000129853
6.4298e-05
2.20368
0.172679
1.71359
-0.240033
0.0048404
0.00417223
-0.00504903
-0.00346586
-8.9823e-07
-0.0117865
0.0331821
-0.00576679
-0.000184867
-6.32414e-05
-3.7511e-07
5.43391e-05
-5.69383e-05
-0.00114556
-1.34791e-05
-0.00517685
-0.00107473
-8.24e-06
3.21044e-06
-7.09458e-06
-2.84446e-05
-0.000370707
-0.000600837
-9.75009e-06
-2.79637e-06
-1.29281e-05
-1.16576e-05
2.65161e-06
4.27772e-07
3.63703e-06
-0.000168082
-3.91851e-05
-4.13771e-06
-1.30196e-05
-4.70982e-06
-4.27292e-06
-7.94071e-06
-4.10916e-05
3.28987e-06
-2.75624e-06
2.31694e-06
-8.24692e-07
2.43974e-06
-2.4759e-06
-9.77096e-07
2.00298e-06
-2.19773e-06
1.96681e-06
2.13182e-09
-2.05011e-07
-1.7289e-06
6.86601e-07
3.84674
4.41451
1.24767
-0.0299549
4.16206
4.68816
3.57834
1.54682
-0.0167205
4.7553
4.19823
4.67612
4.53245
4.5739
4.59429
4.29557
4.52229
4.64792
4.54527
3.93646
2.00993
0.00423193
0.0378307
0.0416833
0.00178824
0.00765469
1.75767
2.73181
0.0516881
1.22638
0.492419
-0.00159391
9.56496e-05
-0.00199461
0.000194349
5.39138e-05
0.000377431
-0.000847179
-0.00101518
-6.48855e-06
-0.00221413
0.000345361
9.13168e-05
0.00039518
6.09193e-05
-0.0130021
-0.000884836
0.000578648
0.00214795
0.000401956
-0.00146134
-0.0154612
0.00137574
0.00197652
0.00265541
5.62129e-05
2.89519e-05
-0.000209647
-0.000133227
-7.74947e-06
-3.02016e-06
0.000386898
-7.35654e-05
-6.74559e-05
4.00877
4.51794
1.42836
2.96962
4.67641
4.63246
4.17079
4.66177
3.4173
2.18164
4.65985
4.57525
2.54329
4.5868
2.69658
0.0512883
3.35254
0.327869
4.63492
4.64607
3.21277
2.12352
4.10518
4.54489
0.00172958
4.64463
4.52118
4.64228
3.96238
3.8403
3.03097
0.538769
-0.00710135
-0.00253352
0.0240489
0.000701208
-0.00183978
-0.000918746
-8.14605e-05
-0.000293345
0.000148326
0.000703387
0.00517231
0.00173086
-0.00106802
-0.00299357
0.00488758
0.000247231
-0.00348291
-0.010152
-0.000601997
-0.00115607
-0.000309198
-0.000119054
0.000442066
0.000275562
-0.000660332
-0.00105889
-0.00300038
0.00790574
-0.000255024
-0.00351585
-0.000303192
-5.47369e-05
4.12016
3.53155
1.28349
2.14081
2.35025
1.38024
1.63615
1.87126
1.99442
4.58664
3.1527
3.45957
4.4757
4.58426
4.21978
3.84002
-0.328318
-0.0627838
-0.373568
1.35649
1.11824
0.456567
1.96499
2.80701
0.124887
0.0313682
4.53391
-0.326453
-0.236802
-0.153436
-0.0582838
-0.0988858
4.34419
0.519465
1.74357
1.24636
1.34157
3.1175
3.89617
2.28411
1.72145
1.42081
1.28985
4.4842
4.50877
4.75045
4.61721
4.63824
4.76204
4.56652
4.56016
4.38518
4.75499
4.82955
4.59329
4.44774
4.50275
4.74223
-0.130392
0.133577
0.412401
-0.136084
0.396414
0.573761
0.0160589
0.00213435
0.00184854
-0.00232858
9.07784e-06
-0.000441777
0.000764574
-2.45035e-05
-0.00719725
0.00810179
0.00151759
0.0141553
0.00328395
0.00161168
-3.65672e-06
-0.00397782
-0.00517914
-0.0164054
0.000200992
-0.000706376
-0.00680172
0.000250761
-0.00834741
-0.0126509
0.0433078
0.0569316
0.0129208
-0.0238331
0.0175617
0.0240069
0.0489948
0.0353625
-0.0159737
-0.0187159
-0.00670386
-0.00654596
-0.00407247
-0.0151926
-0.00872868
-0.0022675
0.00196522
0.00382478
0.00752171
-0.00157452
0.00151164
-0.000512468
0.00405705
0.00417752
-0.00235152
-0.00898101
-0.0143734
-0.0187215
-0.0291926
-0.0232367
-0.0203006
-0.0223588
-0.129614
-0.00297008
-0.0293453
0.00960012
0.015214
-0.0817274
-0.215445
-0.161086
-0.00447153
-1.80349e-05
-0.00513256
-0.00438481
-0.0217406
-0.00643379
0.00548464
0.0378547
-0.00329101
-0.00112157
-0.00670889
-0.00600059
0.360288
0.0939163
-0.049503
-0.0411253
-0.0412918
-0.195026
-0.00275997
0.0126566
0.0344914
-0.00242905
-0.00385236
-0.00489658
-0.00472032
-0.0060616
-0.00643573
0.00052765
-0.00391731
0.000239761
0.00131853
-0.00124409
-0.000149556
-0.000527044
0.000141179
0.000154438
9.6476e-05
-3.30044e-05
-0.00101232
-0.00238537
0.000254939
9.21791e-05
0.00192405
0.00144426
-0.00252593
-0.00100875
0.000331573
0.000398161
0.000173796
-0.000176324
0.00127632
0.000271584
0.000101327
2.62427e-05
0.000365651
0.00073283
0.000641017
0.000438874
0.000918838
0.00102968
0.00129728
0.00170333
0.00116943
0.00134434
0.160434
0.057613
0.0393345
0.0571383
-0.0129046
-0.00702946
-0.00295027
0.232364
0.12316
-0.0176846
-0.0220149
0.427502
0.122557
-0.0318251
-0.00473083
-0.00370418
-0.0012992
-0.000732292
2.88422e-05
0.012764
-0.00165961
-0.0105046
-0.00672584
-0.00166587
-0.000974341
-0.0108407
-0.0312303
0.163223
-0.00923799
0.147552
0.219924
-0.000729087
-8.31863e-05
3.23778e-06
-1.96374e-05
-8.64685e-05
3.98614e-06
-6.94322e-07
3.057e-07
4.46588e-07
0.000181759
0.000168886
0.00018672
0.000259027
2.86726e-05
7.10127e-05
7.77157e-06
1.39859e-06
5.37709e-06
-0.000285688
-0.000219493
-0.00014028
4.50772e-05
3.4817e-06
6.08767e-07
2.91272e-05
9.50896e-06
-0.000128932
3.36823e-05
-0.00055909
-0.000985725
1.95011e-05
6.01084e-05
3.12549e-05
4.22865
4.33642
-0.00425591
0.000544838
0.00428862
0.216597
2.50605
4.13454
4.57964
4.45385
-0.0248634
0.00974276
0.116265
0.0377026
2.33249
3.99591
3.9518
2.95739
4.62662
4.70633
4.44925
4.32933
0.0126868
0.826874
4.73522
4.5929
4.43302
4.52382
3.3222
1.12087
0.0138475
0.00388673
-0.00386786
-0.0021137
-9.93995e-05
2.75832e-05
8.72633e-05
-0.000252535
-0.00966576
2.54217e-05
9.3414e-05
-9.48961e-05
-0.000260371
-7.78441e-05
-0.00111817
-0.00101099
0.000865184
-0.00287159
-0.000226676
-0.00261783
0.00446457
0.00136571
-0.0013966
-0.00110039
0.000459291
9.61925e-05
8.58867e-05
0.00698629
-2.49392e-05
-0.00372306
-0.00080881
-0.000267674
-3.59076e-05
4.86542e-05
0.000836539
0.000204852
0.00817306
0.00345599
-2.5619e-05
-3.32549e-05
0.000550376
0.00243309
1.93619e-05
-0.000119134
-6.83752e-05
2.67142e-05
0.00010817
0.436792
0.154994
4.42453e-05
-2.48828e-05
-4.93237e-05
0.0553961
0.0148761
0.0679445
0.416503
0.141806
-0.00180016
0.000566442
0.00169157
0.000353946
0.0271583
-4.97539e-05
0.000169109
-0.00139059
-0.000295386
3.07012e-06
-1.36407e-05
-4.95309e-05
6.39735e-05
6.35481e-06
-1.39955e-06
-2.04651e-07
-6.40306e-06
2.34678e-05
-6.50223e-07
9.24788e-07
-1.95393e-06
1.62089e-06
-1.83734e-07
8.64858e-05
-0.000108286
0.00015153
-0.000115741
-6.44357e-05
5.42376e-05
2.9405e-05
-4.41344e-06
2.46819e-07
-5.17707e-08
-2.21486e-06
4.24576e-05
-1.44245e-06
3.66515e-05
-2.93775e-05
-7.64419e-06
1.6737e-06
2.33693e-05
1.78124e-06
-9.11162e-07
2.43695e-05
6.51535e-06
-8.60381e-07
4.15844e-06
-7.26853e-07
4.10153e-08
2.24224e-07
1.54794e-06
2.6325e-07
-1.45867e-06
2.43317e-05
2.81753e-06
-6.02012e-08
5.53527e-07
5.45078e-07
2.16016e-07
6.46775e-08
5.45231e-07
-3.2375e-06
4.18035e-06
9.26508e-07
0.000122084
1.42183e-05
-1.56637e-07
-1.41754e-05
2.93906e-05
5.92072e-05
-7.38262e-06
0.000591109
0.000153489
-8.24403e-09
-6.74081e-08
5.07724e-07
5.54662e-09
-2.97953e-09
1.76368e-08
-4.77841e-08
8.50866e-08
-9.37759e-08
2.54772e-07
-9.88888e-08
-2.12783e-09
-8.7786e-10
1.9585e-08
-3.56565e-09
-1.90587e-08
4.62193e-08
2.75613e-06
-4.68732e-06
-3.44e-07
4.17642e-07
-1.98285e-06
1.92954e-07
-2.30161e-08
-2.73822e-07
-3.09032e-07
-4.75347e-08
2.48478e-08
-2.10094e-08
5.24625e-09
-1.05463e-08
6.86165e-10
3.63933e-09
-8.68348e-08
3.15658e-07
-6.99547e-08
7.50321e-10
3.60319e-08
3.0886e-08
-1.22763e-09
-1.52441e-08
-3.60363e-09
-6.53162e-08
-2.82611e-08
-2.97352e-09
-8.72457e-09
-2.44496e-09
-8.843e-10
-1.27788e-07
7.6119e-08
3.87901e-08
1.74831e-07
-4.15306e-08
-6.18495e-09
1.16635e-07
-3.52979e-09
3.03524e-08
7.57467e-08
4.49473e-07
1.92935e-06
1.67052e-07
-2.65552e-08
-1.87397e-07
-2.79962e-07
-1.43865e-09
4.99514e-09
-1.32861e-10
-1.40312e-10
-1.16672e-10
1.78226e-10
7.32257e-10
0
1.7497e-10
-1.91355e-10
0
0
1.17475e-09
0
0
0
0
-1.60503e-08
-2.94162e-10
5.05633e-08
-4.64044e-09
-3.60466e-08
-4.49549e-09
-9.15148e-09
-3.64564e-10
-1.66108e-10
5.87198e-09
3.85517e-09
0
0
5.41664e-10
6.8846e-10
