# vtk DataFile Version 2.0
Unstructured Grid by M++
ASCII
DATASET UNSTRUCTURED_GRID
POINTS 1089 float
  0.968750   0.906250 0
  0.968750   0.937500 0
  1.000000   0.906250 0
  1.000000   0.937500 0
  1.000000   0.968750 0
  0.906250   0.906250 0
  0.906250   0.875000 0
  0.906250   0.812500 0
  0.906250   0.843750 0
  0.937500   0.906250 0
  0.937500   0.937500 0
  0.937500   0.843750 0
  0.937500   0.875000 0
  0.968750   0.875000 0
  0.968750   0.656250 0
  0.968750   0.687500 0
  1.000000   0.656250 0
  1.000000   0.625000 0
  1.000000   0.687500 0
  0.906250   0.656250 0
  0.906250   0.687500 0
  0.906250   0.625000 0
  0.906250   0.531250 0
  0.906250   0.562500 0
  0.906250   0.593750 0
  0.937500   0.656250 0
  0.937500   0.687500 0
  0.937500   0.531250 0
  0.937500   0.562500 0
  0.937500   0.593750 0
  0.937500   0.625000 0
  0.968750   0.625000 0
  0.968750   0.593750 0
  1.000000   0.593750 0
  0.968750   0.562500 0
  1.000000   0.562500 0
  1.000000   0.531250 0
  0.968750   0.531250 0
  0.781250   1.000000 0
  0.812500   0.781250 0
  0.812500   0.812500 0
  0.875000   0.843750 0
  0.875000   0.812500 0
  0.875000   0.875000 0
  0.781250   0.781250 0
  0.843750   0.843750 0
  0.843750   0.812500 0
  0.875000   0.781250 0
  0.843750   0.781250 0
  0.781250   0.750000 0
  0.781250   0.718750 0
  0.781250   0.687500 0
  0.812500   0.750000 0
  0.812500   0.718750 0
  0.812500   0.531250 0
  0.812500   0.687500 0
  0.812500   0.656250 0
  0.812500   0.562500 0
  0.812500   0.593750 0
  0.812500   0.625000 0
  0.875000   0.687500 0
  0.875000   0.656250 0
  0.875000   0.593750 0
  0.875000   0.562500 0
  0.875000   0.625000 0
  0.781250   0.531250 0
  0.781250   0.562500 0
  0.781250   0.625000 0
  0.781250   0.593750 0
  0.781250   0.656250 0
  0.843750   0.656250 0
  0.843750   0.593750 0
  0.843750   0.562500 0
  0.843750   0.625000 0
  0.843750   0.687500 0
  0.843750   0.750000 0
  0.875000   0.531250 0
  0.843750   0.531250 0
  0.656250   0.906250 0
  0.656250   0.937500 0
  0.656250   1.000000 0
  0.656250   0.968750 0
  0.687500   1.000000 0
  0.687500   0.968750 0
  0.687500   0.937500 0
  0.718750   0.937500 0
  0.718750   0.968750 0
  0.718750   1.000000 0
  0.656250   0.781250 0
  0.656250   0.812500 0
  0.656250   0.843750 0
  0.656250   0.875000 0
  0.750000   0.968750 0
  0.750000   1.000000 0
  0.750000   0.656250 0
  0.750000   0.625000 0
  0.687500   0.656250 0
  0.687500   0.687500 0
  0.687500   0.625000 0
  0.718750   0.656250 0
  0.718750   0.687500 0
  0.718750   0.718750 0
  0.656250   0.531250 0
  0.656250   0.562500 0
  0.656250   0.656250 0
  0.656250   0.687500 0
  0.656250   0.750000 0
  0.656250   0.718750 0
  0.656250   0.625000 0
  0.656250   0.593750 0
  0.750000   0.687500 0
  0.750000   0.718750 0
  0.750000   0.750000 0
  0.687500   0.531250 0
  0.687500   0.562500 0
  0.687500   0.593750 0
  0.718750   0.625000 0
  0.750000   0.531250 0
  0.718750   0.531250 0
  0.750000   0.562500 0
  0.718750   0.562500 0
  0.718750   0.593750 0
  0.750000   0.593750 0
  0.562500   1.000000 0
  0.562500   0.968750 0
  0.562500   0.937500 0
  0.562500   0.906250 0
  0.562500   0.812500 0
  0.562500   0.843750 0
  0.562500   0.875000 0
  0.625000   0.937500 0
  0.625000   0.906250 0
  0.562500   0.781250 0
  0.625000   0.875000 0
  0.531250   1.000000 0
  0.531250   0.968750 0
  0.531250   0.937500 0
  0.531250   0.812500 0
  0.531250   0.875000 0
  0.531250   0.843750 0
  0.531250   0.906250 0
  0.593750   0.906250 0
  0.593750   0.843750 0
  0.593750   0.875000 0
  0.593750   0.812500 0
  0.625000   0.843750 0
  0.625000   0.812500 0
  0.593750   0.937500 0
  0.625000   1.000000 0
  0.593750   1.000000 0
  0.593750   0.968750 0
  0.625000   0.968750 0
  0.625000   0.781250 0
  0.593750   0.781250 0
  0.562500   0.531250 0
  0.562500   0.750000 0
  0.562500   0.718750 0
  0.562500   0.687500 0
  0.562500   0.656250 0
  0.562500   0.562500 0
  0.562500   0.593750 0
  0.562500   0.625000 0
  0.625000   0.687500 0
  0.625000   0.656250 0
  0.625000   0.593750 0
  0.625000   0.562500 0
  0.625000   0.625000 0
  0.531250   0.531250 0
  0.531250   0.750000 0
  0.531250   0.718750 0
  0.531250   0.687500 0
  0.531250   0.562500 0
  0.531250   0.625000 0
  0.531250   0.593750 0
  0.531250   0.656250 0
  0.593750   0.656250 0
  0.593750   0.593750 0
  0.593750   0.562500 0
  0.593750   0.625000 0
  0.593750   0.687500 0
  0.625000   0.750000 0
  0.593750   0.750000 0
  0.593750   0.718750 0
  0.625000   0.718750 0
  0.625000   0.531250 0
  0.593750   0.531250 0
  0.968750   0.406250 0
  0.968750   0.437500 0
  0.968750   0.468750 0
  0.968750   0.500000 0
  1.000000   0.406250 0
  1.000000   0.375000 0
  1.000000   0.437500 0
  1.000000   0.468750 0
  1.000000   0.500000 0
  0.906250   0.500000 0
  0.906250   0.406250 0
  0.906250   0.437500 0
  0.906250   0.281250 0
  0.906250   0.312500 0
  0.906250   0.343750 0
  0.906250   0.375000 0
  0.937500   0.406250 0
  0.937500   0.500000 0
  0.937500   0.468750 0
  0.937500   0.437500 0
  0.937500   0.281250 0
  0.937500   0.312500 0
  0.937500   0.343750 0
  0.937500   0.375000 0
  0.968750   0.375000 0
  1.000000   0.281250 0
  0.968750   0.281250 0
  1.000000   0.312500 0
  0.968750   0.312500 0
  0.968750   0.343750 0
  1.000000   0.343750 0
  0.968750   0.125000 0
  0.968750   0.156250 0
  0.968750   0.187500 0
  1.000000   0.000000 0
  1.000000   0.156250 0
  1.000000   0.125000 0
  1.000000   0.187500 0
  1.000000   0.218750 0
  0.531250   0.781250 0
  1.000000   0.250000 0
  0.906250   0.250000 0
  0.906250   0.218750 0
  0.937500   0.250000 0
  0.937500   0.218750 0
  0.968750   0.250000 0
  0.906250   0.031250 0
  0.906250   0.000000 0
  0.906250   0.062500 0
  0.906250   0.093750 0
  0.906250   0.125000 0
  0.937500   0.156250 0
  0.937500   0.031250 0
  0.937500   0.000000 0
  0.937500   0.062500 0
  0.937500   0.093750 0
  0.937500   0.125000 0
  1.000000   0.031250 0
  0.968750   0.031250 0
  0.968750   0.000000 0
  1.000000   0.062500 0
  0.968750   0.062500 0
  0.968750   0.093750 0
  1.000000   0.093750 0
  0.781250   0.312500 0
  0.781250   0.343750 0
  0.812500   0.500000 0
  0.812500   0.468750 0
  0.812500   0.437500 0
  0.812500   0.281250 0
  0.812500   0.312500 0
  0.812500   0.343750 0
  0.812500   0.375000 0
  0.875000   0.281250 0
  0.875000   0.406250 0
  0.875000   0.343750 0
  0.875000   0.312500 0
  0.875000   0.375000 0
  0.843750   0.281250 0
  0.843750   0.312500 0
  0.843750   0.375000 0
  0.843750   0.343750 0
  0.781250   0.500000 0
  0.781250   0.468750 0
  0.781250   0.437500 0
  0.781250   0.406250 0
  0.875000   0.500000 0
  0.843750   0.500000 0
  0.843750   0.468750 0
  0.875000   0.468750 0
  0.781250   0.281250 0
  0.843750   0.218750 0
  0.843750   0.250000 0
  0.843750   0.187500 0
  0.843750   0.156250 0
  0.875000   0.218750 0
  0.875000   0.250000 0
  0.875000   0.187500 0
  0.812500   0.062500 0
  0.812500   0.250000 0
  0.812500   0.218750 0
  0.812500   0.187500 0
  0.812500   0.156250 0
  0.812500   0.125000 0
  0.843750   0.093750 0
  0.843750   0.062500 0
  0.875000   0.125000 0
  0.875000   0.093750 0
  0.875000   0.062500 0
  0.781250   0.250000 0
  0.781250   0.218750 0
  0.781250   0.187500 0
  0.093750   0.937500 0
  0.125000   1.000000 0
  0.937500   0.718750 0
  0.250000   0.000000 0
  0.093750   0.968750 0
  0.125000   0.968750 0
  0.000000   0.718750 0
  0.000000   0.750000 0
  0.125000   0.531250 0
  0.125000   0.562500 0
  0.093750   0.531250 0
  0.031250   0.750000 0
  0.125000   0.468750 0
  0.156250   0.468750 0
  0.500000   0.375000 0
  0.156250   0.500000 0
  0.406250   0.406250 0
  0.406250   0.437500 0
  0.406250   0.500000 0
  0.406250   0.468750 0
  0.406250   0.375000 0
  0.750000   0.312500 0
  0.437500   0.406250 0
  0.437500   0.500000 0
  0.437500   0.468750 0
  0.437500   0.437500 0
  0.468750   0.437500 0
  0.468750   0.468750 0
  0.406250   0.281250 0
  0.406250   0.312500 0
  0.062500   0.375000 0
  0.406250   0.343750 0
  0.062500   0.406250 0
  0.500000   0.468750 0
  0.500000   0.500000 0
  0.437500   0.281250 0
  0.437500   0.312500 0
  0.437500   0.343750 0
  0.093750   0.406250 0
  0.437500   0.375000 0
  0.093750   0.437500 0
  0.468750   0.375000 0
  0.125000   0.437500 0
  0.500000   0.281250 0
  0.468750   0.281250 0
  0.500000   0.312500 0
  0.468750   0.312500 0
  0.468750   0.343750 0
  0.500000   0.343750 0
  0.843750   0.906250 0
  0.156250   0.187500 0
  0.468750   0.187500 0
  0.468750   0.218750 0
  0.468750   0.250000 0
  0.406250   0.031250 0
  0.750000   0.812500 0
  0.062500   0.093750 0
  0.406250   0.000000 0
  0.750000   0.781250 0
  0.062500   0.062500 0
  0.500000   0.187500 0
  0.500000   0.218750 0
  0.500000   0.250000 0
  0.437500   0.031250 0
  0.781250   0.812500 0
  0.093750   0.093750 0
  0.437500   0.000000 0
  0.437500   0.062500 0
  0.781250   0.843750 0
  0.093750   0.125000 0
  0.406250   0.187500 0
  0.406250   0.250000 0
  0.406250   0.218750 0
  0.437500   0.250000 0
  0.437500   0.218750 0
  0.437500   0.187500 0
  0.500000   0.000000 0
  0.500000   0.031250 0
  0.468750   0.031250 0
  0.468750   0.000000 0
  0.500000   0.062500 0
  0.468750   0.062500 0
  0.812500   0.843750 0
  0.125000   0.125000 0
  0.812500   0.875000 0
  0.125000   0.156250 0
  0.500000   0.093750 0
  0.843750   0.875000 0
  0.156250   0.156250 0
  1.000000   1.000000 0
  0.312500   0.281250 0
  0.656250   0.218750 0
  0.437500   0.156250 0
  0.312500   0.500000 0
  0.437500   0.125000 0
  0.312500   0.468750 0
  0.437500   0.093750 0
  0.781250   0.031250 0
  0.312500   0.437500 0
  0.312500   0.406250 0
  0.312500   0.312500 0
  0.312500   0.343750 0
  0.312500   0.375000 0
  0.375000   0.437500 0
  0.375000   0.406250 0
  0.375000   0.343750 0
  0.718750   0.281250 0
  0.375000   0.375000 0
  0.968750   1.000000 0
  0.281250   0.281250 0
  0.406250   0.156250 0
  0.281250   0.500000 0
  0.406250   0.125000 0
  0.281250   0.468750 0
[...]
CELL_DATA 1024
SCALARS scalar_value float 1
LOOKUP_TABLE default
0.0243374
0.108419
-0.021406
0.0789098
0.153749
0.0684402
0.0616109
0.0200038
0.0648017
0.0457465
-0.0178495
0.0462308
0.0898988
0.0297842
-0.00498447
-0.00505722
0.00746339
0.024197
-0.038289
0.028095
-0.0127043
0.0186026
0.00939151
-0.0067687
-0.0253013
0.0135916
0.0609233
0.060264
0.0698414
0.0763214
0.0047274
-0.00877426
0.0333136
0.0116119
3.40297e-05
-0.00159811
0.00848288
0.00243655
0.0179393
0.00140515
-0.000942543
-0.00260541
0.00991846
0.0144861
0.0310856
0.0771602
0.0306297
0.0607844
0.0171466
0.00798627
0.0609366
0.0920357
0.0451426
-0.000583047
0.0120944
8.23741e-05
0.0077202
0.00269621
0.0309583
8.05003e-05
0.0220544
0.00975552
0.00232896
-0.000197035
-0.00353076
0.0728134
-2.78763e-05
0.000960056
0.310495
0.367702
-0.0019601
-0.00139232
0.00138239
-0.000143394
0.596534
0.252464
0.140659
0.145634
0.0481568
-0.00335139
-0.102641
-0.00372667
0.00288518
0.0542518
-0.00540545
-0.0260532
-0.0300328
-0.00415565
0.00170918
2.02933e-05
-0.0264945
0.0317086
0.224582
-0.133021
0.0351909
-0.0120574
-0.053022
-0.020101
0.108399
0.0429353
0.0343714
-0.0460296
-0.0249702
0.0536502
0.00245184
-0.0915918
-0.089552
0.0335212
-0.057763
0.00614451
-0.0903149
0.000522018
0.00184654
0.03712
-0.034785
0.00939029
-0.0181041
0.0768397
0.0412707
0.00488992
0.00213232
0.0056782
0.015621
0.011215
0.00382277
0.00687582
-0.0395465
0.00465069
0.0604212
0.424701
-0.0410184
2.36641
2.99609
2.2351
2.93562
2.89616
2.12859
0.00116207
0.0033737
0.217357
0.40875
2.28676
1.03358
1.66506
0.510283
-0.00055012
6.20363e-05
0.678442
-0.053182
0.00978106
0.787084
-0.0135792
0.00222037
-0.000426135
0.116908
-0.00178972
1.4276
0.795888
-0.15463
0.019599
1.17395
4.64554
4.09615
4.52855
4.59851
4.2496
3.95527
4.43191
4.60758
3.47651
4.61639
4.6517
4.21211
4.53554
3.75247
4.13064
0.0735168
0.0108255
0.0635007
0.246196
-0.0110834
-0.191346
2.00402
0.0261116
0.39854
-0.0606984
1.92164
2.15494
1.24919
2.21347
3.88732
4.63256
2.88954
0.583077
1.81022
0.29875
0.503875
0.0616256
-0.0219021
3.4463
3.78176
3.86642
3.57471
1.99294
-0.0300107
0.334292
0.51713
0.0606721
-0.0633587
2.45841
1.13044
2.44431
3.21191
0.342943
3.8626
3.59369
4.48733
4.22072
3.37114
3.70057
4.43318
4.57871
3.96409
4.23531
-0.00485471
-0.0255918
0.299212
-0.0440167
-0.0273755
-0.0483573
-0.0577024
-0.0384859
-0.0130092
-0.104069
-0.076352
-0.0393587
-0.0443641
0.0624298
3.40366
4.55836
4.60848
-0.0762243
0.423681
1.64483
4.05843
0.211994
0.365503
2.34764
3.3944
2.78879
3.40096
2.54059
0.244729
0.414504
0.494258
0.562154
-0.00156688
-0.00247935
3.48841e-07
4.35032e-06
-1.63176e-05
-0.000375686
-1.55935e-05
-8.70099e-05
-4.49756e-07
5.04423e-08
-1.29531e-07
-1.40019e-06
-0.00135915
-0.000373947
1.00964e-06
4.98943e-07
-3.19445e-06
-5.33686e-05
-7.46606e-05
-0.000343473
-5.19793e-06
-2.63686e-06
-8.40779e-07
-8.52348e-06
7.54938e-08
-8.33034e-08
4.11825e-08
6.8404e-09
-8.58318e-09
2.37959e-08
-6.13469e-08
1.26575e-08
-1.60453e-10
1.61824e-09
3.11457e-10
0
-3.33798e-07
4.10608e-07
-1.35688e-07
3.55142e-08
2.25496e-07
1.23399e-09
3.24618e-07
-5.76721e-07
4.0627e-07
1.52789e-07
-1.20903e-09
-5.85734e-09
6.34371e-09
3.01716e-08
-3.49399e-08
7.86902e-09
-2.58338e-08
-3.18638e-10
-1.65354e-09
2.22602e-08
9.62051e-09
-8.64643e-10
1.69013e-09
-2.14333e-09
0
-8.65026e-10
-1.00552e-08
6.95251e-09
-0.0605104
-0.00754398
0.0466464
-0.036247
-0.0001105
0.00013708
-0.000534757
-0.000410389
3.45208
1.72969
1.91617
0.329789
-0.0129049
0.00819569
0.00561315
0.000141677
1.0532e-05
-0.0156402
0.00680637
-0.0112203
-0.00101678
8.41199e-05
-6.57161e-05
-0.000121658
-3.22651e-05
-0.00232132
-0.000125148
-0.00562467
-0.000624438
3.52393e-06
-6.00782e-06
-1.30343e-05
-5.07199e-05
-0.000120707
-0.00106737
-2.71458e-05
-1.09209e-05
3.74692e-06
1.44602e-05
-4.88929e-06
-7.6266e-07
-4.85943e-06
-8.96547e-05
-4.03437e-05
-1.17122e-05
-3.09037e-05
-8.30142e-06
4.27957e-06
3.82151e-06
1.49717e-05
-2.02151e-07
6.78104e-07
-2.55334e-06
1.02317e-06
-3.48375e-06
2.43519e-06
6.14244e-07
-3.29521e-06
1.08516e-06
-6.2014e-06
-3.09747e-09
3.40144e-07
6.81258e-07
-5.85682e-07
4.36353
4.61248
2.75313
0.0771326
4.52955
4.67256
4.12734
2.93352
0.187112
4.70111
4.57565
4.64583
4.60148
4.6618
4.6282
4.05884
4.33324
4.65037
4.44106
4.41104
3.47073
1.24386
-0.0638346
0.0453837
-0.0018549
0.0197376
3.04514
3.92454
0.205841
1.95148
1.01322
-0.000636072
-0.00202748
-0.00154387
-0.000379554
-0.000130171
-0.000674087
-0.000126887
0.000755166
-0.000749183
0.000935492
-0.000560546
-0.000116293
-0.00107853
-0.000594679
0.00865432
0.00262641
-0.0011706
-0.00338232
-0.000435178
0.00562739
0.00980942
-0.00158268
-0.00163408
-0.000141778
-0.000124056
-0.000271086
-0.000360271
-0.000262401
4.54494e-06
4.5717e-06
-0.000397629
4.82619e-05
4.97781e-05
3.84095
4.46486
1.01898
2.67774
4.63853
4.65971
4.06956
4.54886
3.17903
1.81277
4.65968
4.65232
3.50911
4.64311
3.72942
0.519706
4.10421
1.252
4.65979
4.63556
2.82855
1.56908
3.9003
4.48442
0.292606
4.64465
4.38838
4.62409
4.44664
3.54069
2.47252
1.44032
-0.00909697
-0.00295519
-0.0109393
-0.0114459
-0.00157332
-0.000246845
1.0611e-05
-0.000115621
-0.000692847
-0.00194096
-0.00482113
-0.00462847
0.00648492
0.0105602
-0.00150365
0.000773395
0.012019
0.0142033
-0.000398483
-0.00131007
-0.000103877
-8.56809e-05
-0.000669624
-0.000181752
-0.000314564
-0.00093338
-0.00711157
-0.0126392
-0.00105472
6.19571e-05
-0.00011652
-0.000118727
3.33596
2.60483
2.11567
3.07329
3.21524
2.35687
2.7558
3.00226
3.03227
4.4818
2.02554
2.37389
3.96625
4.30781
3.44977
2.85912
-0.264039
-0.0637589
-0.246776
2.23749
0.322165
0.0411819
0.949329
1.78241
-0.00891619
-0.00425626
4.54645
-0.161403
-0.0802821
-0.0347026
-0.0031347
-0.0121753
4.39339
0.113636
1.18192
2.65221
2.46009
3.76472
4.35612
3.29345
3.05434
2.94511
2.86287
4.53748
4.46424
4.68438
4.67629
4.60055
4.63201
4.5169
4.42936
4.3417
4.63446
4.59148
4.50387
4.35566
3.89774
4.32659
-0.0286051
0.210626
0.436066
-0.188181
0.358713
0.553123
-0.00338116
-0.0133054
-0.0203626
-0.00640312
-0.00863247
-0.0297082
-0.0258064
0.000448108
0.01944
0.00757471
0.000963277
0.00426222
0.00659449
-0.00300256
0.0154558
0.0125896
-0.0663521
-0.0730267
-0.0568751
-0.0474342
-0.0804489
-0.0454883
-0.0499545
-0.0692038
-0.141225
-0.0994251
-0.164625
-0.175253
-0.062483
-0.0169913
-0.0538533
-0.0189251
0.00950084
-0.00188435
0.00370121
0.00686406
0.00248618
-0.00682536
-0.00882564
-0.0054319
0.00168713
0.00349964
0.00180451
0.00283003
0.0023288
0.00348542
0.000463646
0.00016546
0.0087696
0.010638
-0.00618263
-0.0155821
0.0142332
0.0272505
-0.0186899
-0.0081618
0.229935
0.0601626
0.0595285
-0.00280797
-0.0672939
0.0285156
0.0621686
0.0197718
0.00385344
0.0138768
-0.00539684
-0.00388038
-0.0129353
-0.00944355
0.00585233
-0.0447895
-0.0174377
-0.00697343
-0.0142468
0.0128349
-0.174422
0.404611
0.058265
0.288724
-0.201591
0.120852
-0.00246642
-0.0359767
-0.129093
-0.00256582
0.0013421
-0.00353779
-0.004693
-0.00347303
0.00219446
0.00566129
0.00333049
0.0060326
0.00784707
-0.000270079
-0.000899327
-0.00163068
-3.99435e-05
-0.000159722
-0.000322149
-0.000465672
0.00218177
-0.000898608
-3.18048e-05
9.1439e-06
0.00256928
0.0027138
-0.00202038
-0.000961867
-0.0005203
-0.000249089
-0.00074202
-0.000757219
0.000838835
0.000345915
1.07634e-05
1.51952e-06
7.11123e-05
0.000542509
-0.000513564
-6.21777e-06
-0.000268815
-0.000635468
-8.29522e-06
-6.97524e-05
0.00217972
0.000739442
0.0622276
0.0546887
0.0583973
0.0301161
0.177749
0.0634929
-0.0126406
0.0146993
0.260441
-0.0327136
-0.0120628
0.14126
0.115182
0.345608
-0.0232679
-0.0139139
-0.00237721
0.00865793
0.0253037
-0.0116697
-0.067463
-0.00824703
0.00635222
-0.00200057
8.32811e-05
-0.0185087
0.11989
0.210937
0.150741
0.152872
-0.0623171
-0.000729414
-6.23004e-07
-2.03379e-05
-5.32896e-05
-0.000237525
-3.09242e-05
1.11278e-06
6.63966e-06
-1.23969e-07
-0.000171821
-3.32218e-05
-0.00122414
-0.00523052
2.06062e-05
-2.24371e-05
1.5259e-05
3.11662e-06
1.55371e-05
-0.000589735
-0.00107183
0.000175247
-4.47858e-06
6.26138e-07
-3.28887e-07
-8.44159e-05
-1.53043e-05
-0.000179328
-0.000241544
-0.000544855
-0.00132038
1.24884e-05
-0.000175668
-4.54845e-05
4.61396
4.55774
-0.00429247
0.00230545
-0.00156978
1.58237
3.92666
4.46462
4.60741
4.63319
0.0419474
-0.00533566
1.53387
-0.0513009
3.73598
4.42217
3.69037
2.52181
4.62682
4.64924
4.39814
4.64416
-0.0315065
1.83965
4.66128
4.36902
4.48178
4.71606
4.02401
1.93853
0.151419
-0.0288538
-0.00121997
-0.00302118
7.09914e-05
-3.79293e-05
-4.83107e-06
9.32679e-05
0.0131476
-9.5716e-05
-1.88817e-05
-4.19353e-07
0.000102371
-0.000190765
0.000384101
-0.00103402
-0.00173834
0.00425133
-6.28209e-05
-0.0123622
-0.00848825
0.000200792
0.000102352
0.00177738
-9.31301e-05
-0.000146301
-0.000106971
-0.00586033
-0.00224491
-0.00237899
-8.52466e-05
0.000134527
-0.000123214
8.01125e-05
-0.00103612
-0.000633199
0.000567742
-0.000691123
0.00017151
-6.73246e-07
0.000287148
0.000334376
-4.10927e-05
0.000273013
0.000123962
-8.4256e-05
-0.000108968
0.951369
0.592401
-4.88623e-05
5.35166e-05
5.5099e-05
0.0346211
0.0281405
0.0534009
0.924594
0.492906
-0.00186686
0.0616677
-0.00168704
-0.00078818
0.057183
-0.000282141
-0.000132619
0.0123628
-0.000492609
2.08025e-05
-4.94812e-06
8.97748e-05
-8.20252e-05
-5.41665e-07
1.1463e-06
1.36864e-06
7.51773e-06
-2.33233e-05
7.58748e-07
-1.25255e-06
4.6906e-07
3.19023e-07
-1.29434e-07
4.55671e-05
7.62987e-05
0.000126885
0.000161316
5.06631e-05
1.50793e-05
-3.80412e-05
1.17897e-05
-3.10916e-07
-2.24634e-08
8.57958e-05
-0.000160684
-2.60393e-05
3.46299e-05
5.33354e-06
7.46083e-06
-2.55219e-07
-1.92444e-05
4.61278e-07
2.45986e-06
-2.282e-05
-3.37694e-06
-9.58899e-06
-1.43717e-05
-1.74458e-07
1.8962e-06
-2.08428e-06
2.14549e-06
5.49528e-06
1.28453e-06
2.19081e-06
8.69753e-07
3.09445e-07
1.99662e-07
-3.12273e-07
1.34752e-06
1.95714e-06
2.70075e-06
1.1587e-05
-3.0502e-06
-5.90853e-07
3.06549e-05
1.76267e-05
5.18368e-07
2.79325e-05
-3.71554e-05
-5.17113e-05
1.57572e-05
7.32864e-05
1.88193e-06
8.48982e-09
-1.33666e-06
-1.1773e-06
-2.71829e-08
7.09504e-09
-6.69233e-08
2.82864e-07
-5.2204e-07
9.70609e-07
-2.70832e-07
4.86832e-08
3.58046e-09
4.00459e-09
-3.02083e-09
-1.14056e-09
-2.25022e-08
2.19232e-08
-1.59733e-07
6.18379e-06
2.05455e-07
-1.9064e-07
1.3122e-06
-1.02631e-07
-1.3002e-08
3.77672e-07
1.04812e-06
1.49867e-08
4.69813e-08
3.74785e-08
-1.32784e-08
4.26906e-09
1.51249e-09
-1.23408e-06
9.52961e-08
4.61265e-07
-3.5283e-07
1.31093e-07
1.92079e-07
-2.82755e-08
-5.18726e-08
-3.28801e-09
1.64495e-08
-2.67712e-08
-1.24234e-09
-1.16862e-08
-1.06818e-08
-4.97191e-09
2.75415e-09
5.74067e-07
-8.44866e-08
4.67071e-08
1.79471e-07
-3.25688e-08
1.84664e-08
3.87839e-08
-1.15912e-07
-3.48771e-07
1.63733e-07
-2.46882e-06
-4.03943e-07
-7.30077e-08
6.20296e-07
-4.75645e-09
4.39861e-07
3.7455e-09
-5.39459e-09
-4.56682e-09
3.79542e-10
-1.01533e-10
-1.92374e-09
1.00952e-09
-5.45029e-10
-3.07446e-10
2.85803e-10
-2.00678e-10
0
-3.19006e-07
0
1.39628e-10
0
0
1.76166e-08
-2.55489e-08
1.09416e-08
-4.92135e-08
2.63891e-07
1.50893e-08
3.69869e-09
0
1.04202e-08
1.13335e-08
-1.4693e-08
-2.24582e-09
0
-2.94908e-09
1.50353e-09
