# vtk DataFile Version 2.0
Unstructured Grid by M++
ASCII
DATASET UNSTRUCTURED_GRID
POINTS 1089 float
  0.968750   0.906250 0
  0.968750   0.937500 0
  1.000000   0.906250 0
  1.000000   0.937500 0
  1.000000   0.968750 0
  0.906250   0.906250 0
  0.906250   0.875000 0
  0.906250   0.812500 0
  0.906250   0.843750 0
  0.937500   0.906250 0
  0.937500   0.937500 0
  0.937500   0.843750 0
  0.937500   0.875000 0
  0.968750   0.875000 0
  0.968750   0.656250 0
  0.968750   0.687500 0
  1.000000   0.656250 0
  1.000000   0.625000 0
  1.000000   0.687500 0
  0.906250   0.656250 0
  0.906250   0.687500 0
  0.906250   0.625000 0
  0.906250   0.531250 0
  0.906250   0.562500 0
  0.906250   0.593750 0
  0.937500   0.656250 0
  0.937500   0.687500 0
  0.937500   0.531250 0
  0.937500   0.562500 0
  0.937500   0.593750 0
  0.937500   0.625000 0
  0.968750   0.625000 0
  0.968750   0.593750 0
  1.000000   0.593750 0
  0.968750   0.562500 0
  1.000000   0.562500 0
  1.000000   0.531250 0
  0.968750   0.531250 0
  0.781250   1.000000 0
  0.812500   0.781250 0
  0.812500   0.812500 0
  0.875000   0.843750 0
  0.875000   0.812500 0
  0.875000   0.875000 0
  0.781250   0.781250 0
  0.843750   0.843750 0
  0.843750   0.812500 0
  0.875000   0.781250 0
  0.843750   0.781250 0
  0.781250   0.750000 0
  0.781250   0.718750 0
  0.781250   0.687500 0
  0.812500   0.750000 0
  0.812500   0.718750 0
  0.812500   0.531250 0
  0.812500   0.687500 0
  0.812500   0.656250 0
  0.812500   0.562500 0
  0.812500   0.593750 0
  0.812500   0.625000 0
  0.875000   0.687500 0
  0.875000   0.656250 0
  0.875000   0.593750 0
  0.875000   0.562500 0
  0.875000   0.625000 0
  0.781250   0.531250 0
  0.781250   0.562500 0
  0.781250   0.625000 0
  0.781250   0.593750 0
  0.781250   0.656250 0
  0.843750   0.656250 0
  0.843750   0.593750 0
  0.843750   0.562500 0
  0.843750   0.625000 0
  0.843750   0.687500 0
  0.843750   0.750000 0
  0.875000   0.531250 0
  0.843750   0.531250 0
  0.656250   0.906250 0
  0.656250   0.937500 0
  0.656250   1.000000 0
  0.656250   0.968750 0
  0.687500   1.000000 0
  0.687500   0.968750 0
  0.687500   0.937500 0
  0.718750   0.937500 0
  0.718750   0.968750 0
  0.718750   1.000000 0
  0.656250   0.781250 0
  0.656250   0.812500 0
  0.656250   0.843750 0
  0.656250   0.875000 0
  0.750000   0.968750 0
  0.750000   1.000000 0
  0.750000   0.656250 0
  0.750000   0.625000 0
  0.687500   0.656250 0
  0.687500   0.687500 0
  0.687500   0.625000 0
  0.718750   0.656250 0
  0.718750   0.687500 0
  0.718750   0.718750 0
  0.656250   0.531250 0
  0.656250   0.562500 0
  0.656250   0.656250 0
  0.656250   0.687500 0
  0.656250   0.750000 0
  0.656250   0.718750 0
  0.656250   0.625000 0
  0.656250   0.593750 0
  0.750000   0.687500 0
  0.750000   0.718750 0
  0.750000   0.750000 0
  0.687500   0.531250 0
  0.687500   0.562500 0
  0.687500   0.593750 0
  0.718750   0.625000 0
  0.750000   0.531250 0
  0.718750   0.531250 0
  0.750000   0.562500 0
  0.718750   0.562500 0
  0.718750   0.593750 0
  0.750000   0.593750 0
  0.562500   1.000000 0
  0.562500   0.968750 0
  0.562500   0.937500 0
  0.562500   0.906250 0
  0.562500   0.812500 0
  0.562500   0.843750 0
  0.562500   0.875000 0
  0.625000   0.937500 0
  0.625000   0.906250 0
  0.562500   0.781250 0
  0.625000   0.875000 0
  0.531250   1.000000 0
  0.531250   0.968750 0
  0.531250   0.937500 0
  0.531250   0.812500 0
  0.531250   0.875000 0
  0.531250   0.843750 0
  0.531250   0.906250 0
  0.593750   0.906250 0
  0.593750   0.843750 0
  0.593750   0.875000 0
  0.593750   0.812500 0
  0.625000   0.843750 0
  0.625000   0.812500 0
  0.593750   0.937500 0
  0.625000   1.000000 0
  0.593750   1.000000 0
  0.593750   0.968750 0
  0.625000   0.968750 0
  0.625000   0.781250 0
  0.593750   0.781250 0
  0.562500   0.531250 0
  0.562500   0.750000 0
  0.562500   0.718750 0
  0.562500   0.687500 0
  0.562500   0.656250 0
  0.562500   0.562500 0
  0.562500   0.593750 0
  0.562500   0.625000 0
  0.625000   0.687500 0
  0.625000   0.656250 0
  0.625000   0.593750 0
  0.625000   0.562500 0
  0.625000   0.625000 0
  0.531250   0.531250 0
  0.531250   0.750000 0
  0.531250   0.718750 0
  0.531250   0.687500 0
  0.531250   0.562500 0
  0.531250   0.625000 0
  0.531250   0.593750 0
  0.531250   0.656250 0
  0.593750   0.656250 0
  0.593750   0.593750 0
  0.593750   0.562500 0
  0.593750   0.625000 0
  0.593750   0.687500 0
  0.625000   0.750000 0
  0.593750   0.750000 0
  0.593750   0.718750 0
  0.625000   0.718750 0
  0.625000   0.531250 0
  0.593750   0.531250 0
  0.968750   0.406250 0
  0.968750   0.437500 0
  0.968750   0.468750 0
  0.968750   0.500000 0
  1.000000   0.406250 0
  1.000000   0.375000 0
  1.000000   0.437500 0
  1.000000   0.468750 0
  1.000000   0.500000 0
  0.906250   0.500000 0
  0.906250   0.406250 0
  0.906250   0.437500 0
  0.906250   0.281250 0
  0.906250   0.312500 0
  0.906250   0.343750 0
  0.906250   0.375000 0
  0.937500   0.406250 0
  0.937500   0.500000 0
  0.937500   0.468750 0
  0.937500   0.437500 0
  0.937500   0.281250 0
  0.937500   0.312500 0
  0.937500   0.343750 0
  0.937500   0.375000 0
  0.968750   0.375000 0
  1.000000   0.281250 0
  0.968750   0.281250 0
  1.000000   0.312500 0
  0.968750   0.312500 0
  0.968750   0.343750 0
  1.000000   0.343750 0
  0.968750   0.125000 0
  0.968750   0.156250 0
  0.968750   0.187500 0
  1.000000   0.000000 0
  1.000000   0.156250 0
  1.000000   0.125000 0
  1.000000   0.187500 0
  1.000000   0.218750 0
  0.531250   0.781250 0
  1.000000   0.250000 0
  0.906250   0.250000 0
  0.906250   0.218750 0
  0.937500   0.250000 0
  0.937500   0.218750 0
  0.968750   0.250000 0
  0.906250   0.031250 0
  0.906250   0.000000 0
  0.906250   0.062500 0
  0.906250   0.093750 0
  0.906250   0.125000 0
  0.937500   0.156250 0
  0.937500   0.031250 0
  0.937500   0.000000 0
  0.937500   0.062500 0
  0.937500   0.093750 0
  0.937500   0.125000 0
  1.000000   0.031250 0
  0.968750   0.031250 0
  0.968750   0.000000 0
  1.000000   0.062500 0
  0.968750   0.062500 0
  0.968750   0.093750 0
  1.000000   0.093750 0
  0.781250   0.312500 0
  0.781250   0.343750 0
  0.812500   0.500000 0
  0.812500   0.468750 0
  0.812500   0.437500 0
  0.812500   0.281250 0
  0.812500   0.312500 0
  0.812500   0.343750 0
  0.812500   0.375000 0
  0.875000   0.281250 0
  0.875000   0.406250 0
  0.875000   0.343750 0
  0.875000   0.312500 0
  0.875000   0.375000 0
  0.843750   0.281250 0
  0.843750   0.312500 0
  0.843750   0.375000 0
  0.843750   0.343750 0
  0.781250   0.500000 0
  0.781250   0.468750 0
  0.781250   0.437500 0
  0.781250   0.406250 0
  0.875000   0.500000 0
  0.843750   0.500000 0
  0.843750   0.468750 0
  0.875000   0.468750 0
  0.781250   0.281250 0
  0.843750   0.218750 0
  0.843750   0.250000 0
  0.843750   0.187500 0
  0.843750   0.156250 0
  0.875000   0.218750 0
  0.875000   0.250000 0
  0.875000   0.187500 0
  0.812500   0.062500 0
  0.812500   0.250000 0
  0.812500   0.218750 0
  0.812500   0.187500 0
  0.812500   0.156250 0
  0.812500   0.125000 0
  0.843750   0.093750 0
  0.843750   0.062500 0
  0.875000   0.125000 0
  0.875000   0.093750 0
  0.875000   0.062500 0
  0.781250   0.250000 0
  0.781250   0.218750 0
  0.781250   0.187500 0
  0.093750   0.937500 0
  0.125000   1.000000 0
  0.937500   0.718750 0
  0.250000   0.000000 0
  0.093750   0.968750 0
  0.125000   0.968750 0
  0.000000   0.718750 0
  0.000000   0.750000 0
  0.125000   0.531250 0
  0.125000   0.562500 0
  0.093750   0.531250 0
  0.031250   0.750000 0
  0.125000   0.468750 0
  0.156250   0.468750 0
  0.500000   0.375000 0
  0.156250   0.500000 0
  0.406250   0.406250 0
  0.406250   0.437500 0
  0.406250   0.500000 0
  0.406250   0.468750 0
  0.406250   0.375000 0
  0.750000   0.312500 0
  0.437500   0.406250 0
  0.437500   0.500000 0
  0.437500   0.468750 0
  0.437500   0.437500 0
  0.468750   0.437500 0
  0.468750   0.468750 0
  0.406250   0.281250 0
  0.406250   0.312500 0
  0.062500   0.375000 0
  0.406250   0.343750 0
  0.062500   0.406250 0
  0.500000   0.468750 0
  0.500000   0.500000 0
  0.437500   0.281250 0
  0.437500   0.312500 0
  0.437500   0.343750 0
  0.093750   0.406250 0
  0.437500   0.375000 0
  0.093750   0.437500 0
  0.468750   0.375000 0
  0.125000   0.437500 0
  0.500000   0.281250 0
  0.468750   0.281250 0
  0.500000   0.312500 0
  0.468750   0.312500 0
  0.468750   0.343750 0
  0.500000   0.343750 0
  0.843750   0.906250 0
  0.156250   0.187500 0
  0.468750   0.187500 0
  0.468750   0.218750 0
  0.468750   0.250000 0
  0.406250   0.031250 0
  0.750000   0.812500 0
  0.062500   0.093750 0
  0.406250   0.000000 0
  0.750000   0.781250 0
  0.062500   0.062500 0
  0.500000   0.187500 0
  0.500000   0.218750 0
  0.500000   0.250000 0
  0.437500   0.031250 0
  0.781250   0.812500 0
  0.093750   0.093750 0
  0.437500   0.000000 0
  0.437500   0.062500 0
  0.781250   0.843750 0
  0.093750   0.125000 0
  0.406250   0.187500 0
  0.406250   0.250000 0
  0.406250   0.218750 0
  0.437500   0.250000 0
  0.437500   0.218750 0
  0.437500   0.187500 0
  0.500000   0.000000 0
  0.500000   0.031250 0
  0.468750   0.031250 0
  0.468750   0.000000 0
  0.500000   0.062500 0
  0.468750   0.062500 0
  0.812500   0.843750 0
  0.125000   0.125000 0
  0.812500   0.875000 0
  0.125000   0.156250 0
  0.500000   0.093750 0
  0.843750   0.875000 0
  0.156250   0.156250 0
  1.000000   1.000000 0
  0.312500   0.281250 0
  0.656250   0.218750 0
  0.437500   0.156250 0
  0.312500   0.500000 0
  0.437500   0.125000 0
  0.312500   0.468750 0
  0.437500   0.093750 0
  0.781250   0.031250 0
  0.312500   0.437500 0
  0.312500   0.406250 0
  0.312500   0.312500 0
  0.312500   0.343750 0
  0.312500   0.375000 0
  0.375000   0.437500 0
  0.375000   0.406250 0
  0.375000   0.343750 0
  0.718750   0.281250 0
  0.375000   0.375000 0
  0.968750   1.000000 0
  0.281250   0.281250 0
  0.406250   0.156250 0
  0.281250   0.500000 0
  0.406250   0.125000 0
  0.281250   0.468750 0
[...]
CELL_DATA 1024
SCALARS scalar_value float 1
LOOKUP_TABLE default
0.0705514
0.0494818
0.0198238
-0.0352814
0.0916254
0.177716
0.069159
0.0369376
0.0309076
-0.0184949
0.0291454
0.101836
0.0603586
0.0495047
0.0323179
-0.00939388
-0.00361702
-0.0158043
0.071483
-0.00531733
0.0231205
0.0439041
0.0107994
0.00393833
0.00336342
-0.025616
0.0780717
0.0603768
0.0625112
0.0335209
-0.00576781
0.0652859
0.0363027
0.0409397
-0.00287052
-0.00428844
0.000621704
-0.00154564
0.020277
0.0299149
-0.00492758
-0.00634303
-0.00516108
0.011081
0.100833
0.0858254
0.011737
0.043942
-0.0230628
-0.0251025
0.012066
0.0536894
0.0442845
-0.00155258
0.00443862
-0.00225301
0.000345514
-0.00191215
0.0233611
-0.00115926
0.00872171
0.000881548
-0.00147483
-0.000534398
0.00964643
0.158015
-0.000310237
0.00101412
0.408051
0.0907491
0.00128688
0.0347009
0.00151642
-0.000277409
0.264121
0.504725
0.142032
0.048477
0.0741709
-0.0590525
-0.0542474
0.0075781
-0.000866858
0.0704127
0.0541402
-0.0264819
-0.0280026
0.0429891
-8.90614e-05
-0.000953633
-0.0576053
0.131277
0.0808047
-0.0655815
0.00394179
-0.152084
-0.0230116
-0.00808161
0.0464121
0.0832107
0.0178432
-0.0175643
-0.0160391
0.0202685
0.0212161
-0.0622552
0.0340897
-0.0139598
-0.0535498
0.0454026
0.0283378
0.00225314
0.0050234
0.0045629
-0.00909734
-0.0186309
-0.0811683
0.0533338
0.0263486
-0.0128845
0.0189304
-0.00352112
-0.00156026
0.0250765
-0.00508223
0.0923178
0.0832996
-0.00196757
-0.10007
1.62934
0.149434
0.854229
1.2609
0.748004
1.55223
2.79022
2.63094
-0.0267512
0.214112
-0.0269824
-0.0623749
1.08408
-0.135492
1.93
0.966684
0.00556036
0.000149053
0.918005
0.0922279
-0.0159529
0.188957
0.0523559
0.0134256
0.00152394
0.549119
-0.0494665
1.29552
0.0281049
0.0781284
0.0434793
0.113487
4.27167
2.95052
4.59839
4.61785
4.48175
4.27777
4.40617
4.27221
2.20584
4.64879
4.64962
3.58847
4.57631
2.31527
2.66106
0.047654
-0.121354
0.0676447
-0.0455078
-0.01731
-0.134757
1.55573
-0.0278967
0.0927947
0.0864485
0.17745
0.565745
0.163806
1.44092
3.5536
4.59892
3.89705
2.6326
3.49264
1.33797
1.47353
0.909904
0.386697
4.17868
4.35541
4.48966
4.2493
2.74395
0.104123
0.861925
1.2926
0.286426
-0.058323
3.36109
2.70875
3.03015
3.3777
1.888
3.13134
3.10051
4.1661
3.49489
3.67011
3.94191
4.507
4.66174
4.20596
4.39352
-0.0135173
-0.0422034
0.678346
-0.0261201
-0.053621
-0.0649479
-0.0798989
-0.0442762
-0.0266481
-0.132297
-0.10326
-0.0777687
-0.0630004
0.177502
3.95891
4.61694
4.63031
-0.0546761
0.608249
2.38952
4.42849
0.809635
0.976544
3.11975
3.92593
3.45086
3.95397
3.13114
0.600973
0.718568
1.10495
1.14972
-0.00166041
-0.00401693
-3.62764e-06
-5.68567e-06
-5.43624e-06
-0.000254491
-1.65899e-05
-0.000133392
2.09202e-07
4.67869e-08
4.11821e-08
-9.98808e-07
-0.00214919
-0.000394609
-1.64765e-07
9.26717e-08
-4.20355e-07
-3.49257e-05
-7.95023e-05
-0.000532765
-1.15313e-07
1.33312e-06
2.95172e-08
-5.36417e-06
2.74436e-08
-1.86546e-08
5.75246e-09
-9.6001e-08
8.85327e-10
-1.01649e-08
2.18038e-08
-9.74484e-09
2.81014e-10
-8.61487e-10
0
0
-4.83248e-07
-8.37619e-07
9.3883e-08
-4.00148e-08
-1.4261e-07
2.25813e-07
-2.26058e-07
2.21109e-07
1.9435e-08
3.17103e-08
-1.50474e-08
-4.07075e-08
3.44544e-08
5.7679e-08
-3.64184e-08
4.30469e-09
-5.18131e-09
-3.35227e-09
1.90452e-09
-5.14926e-09
4.23616e-09
2.66396e-09
-3.68191e-10
7.42651e-10
-5.30757e-10
-1.08631e-10
4.12393e-09
-1.40911e-09
-0.0441672
-0.00236672
0.0735474
-0.037949
-0.000325961
-0.000567409
-0.000363972
0.00017398
2.79769
0.526758
1.75138
-0.0735049
-0.0087213
0.00780819
-0.00475554
-0.00065947
-1.17106e-05
-0.0136842
0.0272415
-0.00820423
-0.000472602
-8.57576e-05
-1.83632e-05
-3.22838e-05
8.12487e-05
-0.00166949
-4.74934e-05
-0.00601554
-0.000834451
-6.92719e-06
-1.86127e-06
1.04744e-05
1.97273e-05
-0.000226254
0.000103934
-3.63788e-06
2.10303e-06
1.0218e-05
-7.24945e-06
3.58305e-06
1.74175e-06
1.16927e-06
-0.000162266
-8.06172e-05
-1.86948e-05
-1.46294e-05
-3.42709e-06
-4.88629e-06
-1.90776e-05
-1.84118e-07
3.44641e-06
-1.44534e-06
-1.08612e-06
9.00993e-07
2.27135e-06
-2.13073e-06
-3.03117e-06
1.13474e-06
1.7482e-06
1.41223e-06
-1.08106e-07
6.04761e-07
-6.96576e-07
-3.30917e-07
4.0889
4.51559
1.77201
-0.0423419
4.33825
4.68549
3.78847
2.04679
-0.00249278
4.74114
4.36576
4.66998
4.57377
4.61204
4.607
4.2219
4.47179
4.65039
4.51263
4.09728
2.63044
0.250395
-0.005261
0.0450001
-0.00110287
0.0138528
2.16528
3.27755
0.0867282
1.4503
0.650482
-0.00124949
-0.00110621
-0.00165208
-0.000149272
-7.1379e-05
-0.000293796
-0.000930325
-0.000134345
0.000307023
-0.00156857
7.74482e-05
4.74723e-05
-0.000241342
-0.000207898
-0.00725366
0.00272752
0.000350855
0.000756626
0.00168233
0.00308848
-0.0110514
0.000162372
0.0010784
0.0036991
-1.90019e-05
-0.000170394
-0.000336341
-0.000343036
1.66596e-05
1.27459e-05
0.000116679
-1.89347e-05
-3.80585e-05
3.95375
4.49877
1.27967
2.87046
4.66385
4.64225
4.13575
4.62364
3.33778
2.05406
4.67885
4.59492
2.90559
4.6178
3.09957
0.152274
3.66916
0.584729
4.64881
4.64063
3.08052
1.9325
4.03667
4.52614
0.0561395
4.64421
4.48083
4.6389
4.17458
3.73976
2.84371
0.810654
-0.0114264
-0.00422459
0.0163821
-0.00475324
-0.00254613
-0.00092912
-7.15255e-05
-0.000385799
-0.000597778
-0.000876065
0.00375503
-0.0019456
0.00482718
0.00314458
0.00557027
0.00141717
0.00424681
-0.00259707
-0.000737573
-0.00160506
-0.00033995
-0.000156353
-0.000204432
0.000181534
-0.00108406
-0.00178865
-0.0063182
0.00406803
-0.00106613
-0.00333368
-0.000480324
-0.000195473
3.89358
3.25822
1.53251
2.51005
2.67779
1.64891
1.98554
2.28374
2.40518
4.58875
2.77771
3.10408
4.33305
4.52191
3.98891
3.53146
-0.306001
-0.0621452
-0.332733
1.67961
0.858038
0.288873
1.66504
2.50654
0.0510478
0.00283738
4.579
-0.275853
-0.186935
-0.113218
-0.0263704
-0.0627052
4.35719
0.358172
1.54855
1.7795
1.78525
3.35815
4.08466
2.62377
2.15226
1.91104
1.83255
4.52267
4.50525
4.74648
4.64332
4.62841
4.7112
4.61181
4.57178
4.3887
4.72305
4.76998
4.56298
4.42201
4.33068
4.6278
-0.0975677
0.165865
0.426486
-0.174468
0.390032
0.5731
0.0140611
-0.00519916
-0.00674556
-0.0063945
-0.00557973
-0.0105491
-0.00603515
0.00173095
-0.00251647
0.00902222
0.000324056
0.0146375
0.0075183
-0.000269237
0.0079998
0.0028892
-0.0287745
-0.0431862
-0.0179768
-0.014326
-0.0251042
-0.00836488
-0.0222443
-0.0317763
-0.0081876
0.0282746
-0.0499475
-0.088385
-0.00952127
0.00760251
0.038183
0.0281654
-0.0113136
-0.0162854
-0.00363739
-0.00143957
-0.00243878
-0.0169603
-0.0133299
-0.00585747
0.00105626
0.00372094
0.00604329
0.000117292
0.00226456
0.00143274
0.00325743
0.00315723
-0.00598036
-0.0129328
-0.0170151
-0.0233176
-0.0149445
-0.00484035
-0.0256996
-0.0196637
-0.0447671
-0.00132269
-0.0308184
0.0125755
0.00169956
-0.0713695
-0.157823
-0.127767
0.000100137
0.00476031
-0.00389635
-0.00386389
-0.0245691
-0.00647017
0.0276525
0.0610491
-0.00605059
-0.0016857
-0.00851549
-0.00157362
0.265562
0.266394
-0.0442451
0.0196796
-0.124933
-0.167976
-0.000559789
0.0214948
-0.00979937
-0.00257644
-0.00649097
-0.00579607
-0.00461607
-0.00629232
-0.00352526
0.00234633
-0.00199702
0.00279668
0.00431062
0.000860987
-0.000407231
-0.000773888
3.5703e-05
-3.7898e-05
-0.000228706
-0.000310808
0.000511714
0.00035614
0.000127399
5.67299e-05
0.00325722
0.00227942
-0.00271366
-0.00141648
2.15987e-05
0.000133509
-0.000185907
-0.000579741
0.00150987
0.000308104
4.63126e-05
1.63253e-05
0.000421961
0.00121448
0.000127742
0.000283824
0.000494826
0.00037191
0.000852116
0.00116764
0.00227886
0.00136797
0.0883401
0.151979
0.0295978
0.0545127
0.02512
-0.0162471
-0.000840656
0.232086
0.110557
-0.0704336
-0.00626642
0.417802
0.113896
0.0315207
0.00886275
-0.00464994
-0.0016081
-0.00070179
0.00225965
-0.000822817
-0.00810443
0.00822379
-0.00377298
-0.000175303
-0.00160379
-0.0196788
-0.0370067
0.158275
0.103607
0.200265
0.153348
-0.00152137
-0.000122872
-5.53674e-05
-0.000210023
7.33612e-06
3.27841e-06
2.85006e-06
-6.9667e-08
6.1838e-07
7.36951e-05
-3.79996e-06
0.000769061
0.00385979
-1.87822e-05
-1.06347e-05
-1.15596e-05
-5.08512e-06
-1.85832e-06
1.73213e-05
-0.000490792
-0.000237124
-8.04349e-05
2.0044e-06
1.0036e-06
1.3924e-05
7.75047e-06
-0.000306643
-8.75158e-05
-0.000726484
-0.00096771
7.99758e-06
1.30835e-05
2.46423e-05
4.38037
4.41942
-0.0117604
0.00342356
-0.00439047
0.554682
3.12886
4.28745
4.58566
4.55076
-0.00634192
0.0128456
0.469279
-0.016453
2.93783
4.16589
3.87446
2.8099
4.61182
4.69974
4.42384
4.4895
-0.000638907
1.14265
4.77238
4.47597
4.47569
4.55996
3.58673
1.37252
0.0458757
-0.00938649
-0.00746615
-0.00163703
-4.89021e-05
6.43767e-06
9.91805e-05
-0.000232216
-0.00432393
2.48997e-05
8.68891e-05
-8.69097e-05
-0.000180141
-0.000192464
-0.000634556
-0.000496267
-9.30966e-05
-0.00111865
2.25489e-05
-0.00999021
0.00288356
0.00175799
-0.000894338
-0.000506324
0.000458047
2.02421e-05
4.64891e-05
0.00554443
-0.00229136
-0.00562071
-0.00106684
-0.000250233
-0.000131906
8.56821e-05
0.000525315
0.000277315
0.00606653
0.00228602
-4.89023e-05
-0.000100695
0.000432455
0.00185727
-3.85449e-05
6.47001e-05
-6.20066e-05
-6.30667e-05
6.41722e-05
0.593326
0.277544
5.0056e-05
2.70098e-05
-5.4283e-05
0.0562245
0.0263692
0.0719128
0.570695
0.236511
-0.00131596
0.00905008
0.000177756
0.00117231
0.0412615
-0.000259724
-2.67174e-05
0.00113409
-0.000720065
4.13278e-05
-3.01138e-05
6.39643e-06
-1.09929e-05
5.75211e-06
-4.15335e-06
9.26034e-07
6.46389e-06
-9.18717e-06
9.84419e-08
-6.21198e-07
-3.0674e-06
2.88773e-06
-3.60219e-07
0.000128681
-9.9579e-05
0.000136719
2.97795e-05
-4.15371e-05
6.38688e-05
7.65311e-06
1.76249e-06
1.56439e-08
-9.60565e-08
8.71621e-05
-8.65497e-05
-2.78627e-05
8.52273e-05
-3.20787e-05
-4.89621e-06
1.95254e-06
1.41294e-05
9.93509e-07
-2.29411e-07
5.55152e-06
1.76652e-05
3.77211e-06
7.02719e-06
1.8785e-07
-9.49264e-07
1.55863e-06
-4.61986e-07
-1.96958e-06
1.19846e-07
1.79661e-05
3.19553e-06
2.55169e-07
1.60424e-07
6.17252e-07
-9.45746e-08
3.31262e-07
-4.98404e-06
-4.11477e-06
1.1897e-06
3.34205e-06
8.70383e-05
1.23276e-05
-2.50465e-07
1.3657e-05
4.55815e-05
2.8231e-05
-1.93412e-05
0.000360085
6.28256e-05
-7.05448e-10
6.07895e-07
1.5003e-07
3.15724e-09
-1.95912e-09
1.63524e-08
-2.94915e-08
1.09348e-07
-2.46121e-07
5.18477e-09
7.26823e-08
4.98114e-09
1.20759e-09
-1.36808e-09
-9.46689e-09
4.08929e-08
-2.81803e-08
1.7975e-06
-1.47883e-06
-2.05835e-07
1.49327e-07
-1.69051e-06
1.39306e-07
-4.05032e-08
-3.72641e-07
1.45621e-06
-9.40709e-08
1.8853e-07
3.85836e-08
-1.15475e-08
-1.05048e-08
2.05831e-09
4.96411e-07
-6.56999e-07
-2.34202e-06
1.27623e-07
-7.19121e-08
-4.15581e-08
1.4533e-08
3.07463e-08
5.89906e-09
-1.14969e-08
-1.64375e-07
-3.47009e-08
5.52245e-09
-3.29738e-09
4.24226e-09
-1.42449e-09
2.50314e-08
-1.3457e-07
-1.62781e-07
-1.09581e-07
2.7089e-08
-2.17592e-08
6.37442e-08
1.04623e-07
2.88099e-07
2.52667e-07
8.87919e-07
-3.84431e-07
-7.72731e-08
-4.01531e-07
3.09821e-07
-1.4352e-07
-9.14558e-10
2.79131e-10
4.17657e-09
0
0
8.92695e-10
-9.01097e-10
0
1.16721e-10
0
0
0
1.53727e-07
0
-1.16754e-10
0
0
-6.03873e-09
1.52333e-08
-2.62079e-08
3.94148e-08
-8.64358e-08
-9.56194e-09
-9.09543e-09
-1.30421e-10
-4.11286e-09
-1.67053e-08
7.02887e-09
1.0954e-09
0
2.011e-10
-3.03821e-10
