# vtk DataFile Version 2.0
Unstructured Grid by M++
ASCII
DATASET UNSTRUCTURED_GRID
POINTS 1089 float
  0.968750   0.906250 0
  0.968750   0.937500 0
  1.000000   0.906250 0
  1.000000   0.937500 0
  1.000000   0.968750 0
  0.906250   0.906250 0
  0.906250   0.875000 0
  0.906250   0.812500 0
  0.906250   0.843750 0
  0.937500   0.906250 0
  0.937500   0.937500 0
  0.937500   0.843750 0
  0.937500   0.875000 0
  0.968750   0.875000 0
  0.968750   0.656250 0
  0.968750   0.687500 0
  1.000000   0.656250 0
  1.000000   0.625000 0
  1.000000   0.687500 0
  0.906250   0.656250 0
  0.906250   0.687500 0
  0.906250   0.625000 0
  0.906250   0.531250 0
  0.906250   0.562500 0
  0.906250   0.593750 0
  0.937500   0.656250 0
  0.937500   0.687500 0
  0.937500   0.531250 0
  0.937500   0.562500 0
  0.937500   0.593750 0
  0.937500   0.625000 0
  0.968750   0.625000 0
  0.968750   0.593750 0
  1.000000   0.593750 0
  0.968750   0.562500 0
  1.000000   0.562500 0
  1.000000   0.531250 0
  0.968750   0.531250 0
  0.781250   1.000000 0
  0.812500   0.781250 0
  0.812500   0.812500 0
  0.875000   0.843750 0
  0.875000   0.812500 0
  0.875000   0.875000 0
  0.781250   0.781250 0
  0.843750   0.843750 0
  0.843750   0.812500 0
  0.875000   0.781250 0
  0.843750   0.781250 0
  0.781250   0.750000 0
  0.781250   0.718750 0
  0.781250   0.687500 0
  0.812500   0.750000 0
  0.812500   0.718750 0
  0.812500   0.531250 0
  0.812500   0.687500 0
  0.812500   0.656250 0
  0.812500   0.562500 0
  0.812500   0.593750 0
  0.812500   0.625000 0
  0.875000   0.687500 0
  0.875000   0.656250 0
  0.875000   0.593750 0
  0.875000   0.562500 0
  0.875000   0.625000 0
  0.781250   0.531250 0
  0.781250   0.562500 0
  0.781250   0.625000 0
  0.781250   0.593750 0
  0.781250   0.656250 0
  0.843750   0.656250 0
  0.843750   0.593750 0
  0.843750   0.562500 0
  0.843750   0.625000 0
  0.843750   0.687500 0
  0.843750   0.750000 0
  0.875000   0.531250 0
  0.843750   0.531250 0
  0.656250   0.906250 0
  0.656250   0.937500 0
  0.656250   1.000000 0
  0.656250   0.968750 0
  0.687500   1.000000 0
  0.687500   0.968750 0
  0.687500   0.937500 0
  0.718750   0.937500 0
  0.718750   0.968750 0
  0.718750   1.000000 0
  0.656250   0.781250 0
  0.656250   0.812500 0
  0.656250   0.843750 0
  0.656250   0.875000 0
  0.750000   0.968750 0
  0.750000   1.000000 0
  0.750000   0.656250 0
  0.750000   0.625000 0
  0.687500   0.656250 0
  0.687500   0.687500 0
  0.687500   0.625000 0
  0.718750   0.656250 0
  0.718750   0.687500 0
  0.718750   0.718750 0
  0.656250   0.531250 0
  0.656250   0.562500 0
  0.656250   0.656250 0
  0.656250   0.687500 0
  0.656250   0.750000 0
  0.656250   0.718750 0
  0.656250   0.625000 0
  0.656250   0.593750 0
  0.750000   0.687500 0
  0.750000   0.718750 0
  0.750000   0.750000 0
  0.687500   0.531250 0
  0.687500   0.562500 0
  0.687500   0.593750 0
  0.718750   0.625000 0
  0.750000   0.531250 0
  0.718750   0.531250 0
  0.750000   0.562500 0
  0.718750   0.562500 0
  0.718750   0.593750 0
  0.750000   0.593750 0
  0.562500   1.000000 0
  0.562500   0.968750 0
  0.562500   0.937500 0
  0.562500   0.906250 0
  0.562500   0.812500 0
  0.562500   0.843750 0
  0.562500   0.875000 0
  0.625000   0.937500 0
  0.625000   0.906250 0
  0.562500   0.781250 0
  0.625000   0.875000 0
  0.531250   1.000000 0
  0.531250   0.968750 0
  0.531250   0.937500 0
  0.531250   0.812500 0
  0.531250   0.875000 0
  0.531250   0.843750 0
  0.531250   0.906250 0
  0.593750   0.906250 0
  0.593750   0.843750 0
  0.593750   0.875000 0
  0.593750   0.812500 0
  0.625000   0.843750 0
  0.625000   0.812500 0
  0.593750   0.937500 0
  0.625000   1.000000 0
  0.593750   1.000000 0
  0.593750   0.968750 0
  0.625000   0.968750 0
  0.625000   0.781250 0
  0.593750   0.781250 0
  0.562500   0.531250 0
  0.562500   0.750000 0
  0.562500   0.718750 0
  0.562500   0.687500 0
  0.562500   0.656250 0
  0.562500   0.562500 0
  0.562500   0.593750 0
  0.562500   0.625000 0
  0.625000   0.687500 0
  0.625000   0.656250 0
  0.625000   0.593750 0
  0.625000   0.562500 0
  0.625000   0.625000 0
  0.531250   0.531250 0
  0.531250   0.750000 0
  0.531250   0.718750 0
  0.531250   0.687500 0
  0.531250   0.562500 0
  0.531250   0.625000 0
  0.531250   0.593750 0
  0.531250   0.656250 0
  0.593750   0.656250 0
  0.593750   0.593750 0
  0.593750   0.562500 0
  0.593750   0.625000 0
  0.593750   0.687500 0
  0.625000   0.750000 0
  0.593750   0.750000 0
  0.593750   0.718750 0
  0.625000   0.718750 0
  0.625000   0.531250 0
  0.593750   0.531250 0
  0.968750   0.406250 0
  0.968750   0.437500 0
  0.968750   0.468750 0
  0.968750   0.500000 0
  1.000000   0.406250 0
  1.000000   0.375000 0
  1.000000   0.437500 0
  1.000000   0.468750 0
  1.000000   0.500000 0
  0.906250   0.500000 0
  0.906250   0.406250 0
  0.906250   0.437500 0
  0.906250   0.281250 0
  0.906250   0.312500 0
  0.906250   0.343750 0
  0.906250   0.375000 0
  0.937500   0.406250 0
  0.937500   0.500000 0
  0.937500   0.468750 0
  0.937500   0.437500 0
  0.937500   0.281250 0
  0.937500   0.312500 0
  0.937500   0.343750 0
  0.937500   0.375000 0
  0.968750   0.375000 0
  1.000000   0.281250 0
  0.968750   0.281250 0
  1.000000   0.312500 0
  0.968750   0.312500 0
  0.968750   0.343750 0
  1.000000   0.343750 0
  0.968750   0.125000 0
  0.968750   0.156250 0
  0.968750   0.187500 0
  1.000000   0.000000 0
  1.000000   0.156250 0
  1.000000   0.125000 0
  1.000000   0.187500 0
  1.000000   0.218750 0
  0.531250   0.781250 0
  1.000000   0.250000 0
  0.906250   0.250000 0
  0.906250   0.218750 0
  0.937500   0.250000 0
  0.937500   0.218750 0
  0.968750   0.250000 0
  0.906250   0.031250 0
  0.906250   0.000000 0
  0.906250   0.062500 0
  0.906250   0.093750 0
  0.906250   0.125000 0
  0.937500   0.156250 0
  0.937500   0.031250 0
  0.937500   0.000000 0
  0.937500   0.062500 0
  0.937500   0.093750 0
  0.937500   0.125000 0
  1.000000   0.031250 0
  0.968750   0.031250 0
  0.968750   0.000000 0
  1.000000   0.062500 0
  0.968750   0.062500 0
  0.968750   0.093750 0
  1.000000   0.093750 0
  0.781250   0.312500 0
  0.781250   0.343750 0
  0.812500   0.500000 0
  0.812500   0.468750 0
  0.812500   0.437500 0
  0.812500   0.281250 0
  0.812500   0.312500 0
  0.812500   0.343750 0
  0.812500   0.375000 0
  0.875000   0.281250 0
  0.875000   0.406250 0
  0.875000   0.343750 0
  0.875000   0.312500 0
  0.875000   0.375000 0
  0.843750   0.281250 0
  0.843750   0.312500 0
  0.843750   0.375000 0
  0.843750   0.343750 0
  0.781250   0.500000 0
  0.781250   0.468750 0
  0.781250   0.437500 0
  0.781250   0.406250 0
  0.875000   0.500000 0
  0.843750   0.500000 0
  0.843750   0.468750 0
  0.875000   0.468750 0
  0.781250   0.281250 0
  0.843750   0.218750 0
  0.843750   0.250000 0
  0.843750   0.187500 0
  0.843750   0.156250 0
  0.875000   0.218750 0
  0.875000   0.250000 0
  0.875000   0.187500 0
  0.812500   0.062500 0
  0.812500   0.250000 0
  0.812500   0.218750 0
  0.812500   0.187500 0
  0.812500   0.156250 0
  0.812500   0.125000 0
  0.843750   0.093750 0
  0.843750   0.062500 0
  0.875000   0.125000 0
  0.875000   0.093750 0
  0.875000   0.062500 0
  0.781250   0.250000 0
  0.781250   0.218750 0
  0.781250   0.187500 0
  0.093750   0.937500 0
  0.125000   1.000000 0
  0.937500   0.718750 0
  0.250000   0.000000 0
  0.093750   0.968750 0
  0.125000   0.968750 0
  0.000000   0.718750 0
  0.000000   0.750000 0
  0.125000   0.531250 0
  0.125000   0.562500 0
  0.093750   0.531250 0
  0.031250   0.750000 0
  0.125000   0.468750 0
  0.156250   0.468750 0
  0.500000   0.375000 0
  0.156250   0.500000 0
  0.406250   0.406250 0
  0.406250   0.437500 0
  0.406250   0.500000 0
  0.406250   0.468750 0
  0.406250   0.375000 0
  0.750000   0.312500 0
  0.437500   0.406250 0
  0.437500   0.500000 0
  0.437500   0.468750 0
  0.437500   0.437500 0
  0.468750   0.437500 0
  0.468750   0.468750 0
  0.406250   0.281250 0
  0.406250   0.312500 0
  0.062500   0.375000 0
  0.406250   0.343750 0
  0.062500   0.406250 0
  0.500000   0.468750 0
  0.500000   0.500000 0
  0.437500   0.281250 0
  0.437500   0.312500 0
  0.437500   0.343750 0
  0.093750   0.406250 0
  0.437500   0.375000 0
  0.093750   0.437500 0
  0.468750   0.375000 0
  0.125000   0.437500 0
  0.500000   0.281250 0
  0.468750   0.281250 0
  0.500000   0.312500 0
  0.468750   0.312500 0
  0.468750   0.343750 0
  0.500000   0.343750 0
  0.843750   0.906250 0
  0.156250   0.187500 0
  0.468750   0.187500 0
  0.468750   0.218750 0
  0.468750   0.250000 0
  0.406250   0.031250 0
  0.750000   0.812500 0
  0.062500   0.093750 0
  0.406250   0.000000 0
  0.750000   0.781250 0
  0.062500   0.062500 0
  0.500000   0.187500 0
  0.500000   0.218750 0
  0.500000   0.250000 0
  0.437500   0.031250 0
  0.781250   0.812500 0
  0.093750   0.093750 0
  0.437500   0.000000 0
  0.437500   0.062500 0
  0.781250   0.843750 0
  0.093750   0.125000 0
  0.406250   0.187500 0
  0.406250   0.250000 0
  0.406250   0.218750 0
  0.437500   0.250000 0
  0.437500   0.218750 0
  0.437500   0.187500 0
  0.500000   0.000000 0
  0.500000   0.031250 0
  0.468750   0.031250 0
  0.468750   0.000000 0
  0.500000   0.062500 0
  0.468750   0.062500 0
  0.812500   0.843750 0
  0.125000   0.125000 0
  0.812500   0.875000 0
  0.125000   0.156250 0
  0.500000   0.093750 0
  0.843750   0.875000 0
  0.156250   0.156250 0
  1.000000   1.000000 0
  0.312500   0.281250 0
  0.656250   0.218750 0
  0.437500   0.156250 0
  0.312500   0.500000 0
  0.437500   0.125000 0
  0.312500   0.468750 0
  0.437500   0.093750 0
  0.781250   0.031250 0
  0.312500   0.437500 0
  0.312500   0.406250 0
  0.312500   0.312500 0
  0.312500   0.343750 0
  0.312500   0.375000 0
  0.375000   0.437500 0
  0.375000   0.406250 0
  0.375000   0.343750 0
  0.718750   0.281250 0
  0.375000   0.375000 0
  0.968750   1.000000 0
  0.281250   0.281250 0
  0.406250   0.156250 0
  0.281250   0.500000 0
  0.406250   0.125000 0
  0.281250   0.468750 0
[...]
CELL_DATA 1024
SCALARS scalar_value float 1
LOOKUP_TABLE default
0.00744201
-0.0201131
0.0384769
0.063679
-0.0404812
-0.0815517
-0.00249838
0.00612717
-0.00594288
0.0325074
0.0225451
-0.0467277
-0.0228723
-0.00128859
-0.000613893
-0.00816917
0.00994815
0.00654384
-0.000121359
0.0158504
0.0355175
-0.00681001
6.34787e-05
1.81213e-06
-0.000399879
-0.00034474
-0.0137854
0.00276998
0.0118758
-0.0381446
0.0178585
-0.000935425
0.0393056
0.0582535
-0.00163451
0.00245109
0.0231135
-0.000624525
0.0566115
0.0710249
0.000118969
0.00781899
-0.0123776
0.00215485
0.0866387
0.0500651
0.0572286
-0.00616225
-0.02143
0.0495524
0.0552403
0.00184704
-0.037453
0.000879942
0.0120747
-0.00343439
0.00577602
-0.0055274
-0.0015226
-0.00230699
0.0252424
0.0142383
-0.00556897
0.00028353
-5.11745e-05
0.000634876
-4.23713e-07
-1.95155e-05
0.000459474
-0.00958564
-9.92917e-05
0.000558866
-1.85105e-05
1.76862e-07
-0.0556222
0.00527943
0.665896
0.331996
1.00657
-0.000532945
0.000399162
1.33757e-05
-1.80684e-06
-0.0652284
-0.00704302
0.154539
0.244356
1.66737
-1.35632e-05
2.16046e-06
-0.000141728
0.00109388
-0.00127235
0.293042
0.546794
0.0928338
-0.0479642
0.320685
0.271543
-0.0891869
0.647258
1.51197
1.88156
2.03453
2.86923
1.04523
1.22552
4.12548
3.85363
2.95187
1.70249
0.00911654
0.00835001
-0.0774641
0.0366415
0.150459
0.0767169
0.0264105
0.0721219
-0.0648099
0.051501
-0.0449421
-0.0081225
-0.029964
-0.0071698
0.0475107
-0.0434275
0.662179
2.57516
6.21325e-05
-2.5009e-05
3.23876
3.70051
2.22275
0.212302
7.61811e-05
-0.000456087
1.03203e-05
9.65373e-05
3.04505
3.5773
0.0274829
1.69216
0.00925171
-0.00126229
3.32503e-05
3.752e-06
0.00795672
-0.00143834
-3.23453e-06
0.0978229
1.53718
3.37787e-05
-4.73138e-07
-0.000554608
0.000489257
-0.01604
0.671359
2.46084
3.24596
3.96779
3.79554
3.90743
2.79396
3.19532
1.74964
0.794413
1.81149
3.19299
4.31056
3.72572
4.36547
3.94203
3.12281
4.59166
4.52448
3.34221
2.57942
4.62836
4.46776
4.18108
4.52536
4.29933
4.21797
4.24323
3.66629
4.60075
4.47062
4.64178
4.57835
4.30545
4.43709
0.000573058
-0.000144602
0.000696395
0.000383383
0.000486257
0.000218608
4.89487e-05
-0.000221001
0.00263518
0.00765529
0.00122043
0.00146811
-0.00017991
-0.000581191
0.000721914
-0.00123127
-0.0011885
-0.000214769
0.000105094
0.000237165
0.000956514
-3.74099e-05
0.774143
0.0586707
2.53146
1.86405
0.00014147
-0.00027202
0.153595
0.29021
0.000416827
-0.0185894
-0.00113175
-0.00101233
0.00645692
-0.000531718
-0.00193871
-0.00105875
-0.00183318
-0.00195123
-0.00132362
-0.0119297
-0.00379735
-0.00429692
-0.00729779
-0.018598
0.10094
1.07929
2.25129
-0.0314227
0.01602
-0.0137401
0.0886335
0.0136381
0.00324231
-0.0565338
0.283451
0.0618103
0.384754
0.249936
0.0012699
0.00667835
-0.00277683
-0.00219015
0.00340848
0.00501274
7.30083e-05
5.84872e-05
0.000226414
0.00140777
5.11639e-05
0.00023753
-8.9692e-07
1.02458e-05
4.23168e-06
8.65365e-06
0.00307265
0.000978295
3.57043e-05
-6.40174e-06
5.68078e-05
0.000233122
0.000217061
0.000831227
-1.07468e-05
-4.15449e-05
1.59748e-05
4.54207e-05
-2.09219e-06
-1.28356e-06
-3.45083e-07
3.35241e-06
-1.54547e-07
3.63526e-07
3.72902e-07
-3.59514e-07
-3.4988e-09
2.62548e-08
1.67886e-09
-1.69749e-10
-1.1479e-05
5.40863e-06
1.57004e-06
-6.45211e-07
-7.41369e-08
1.67746e-08
-3.13269e-06
5.78529e-06
-2.19794e-06
2.34904e-06
-1.5761e-07
-1.86072e-07
2.95463e-07
8.88617e-07
4.82515e-08
-3.34539e-07
5.75691e-07
1.86366e-07
-6.56577e-08
1.35225e-06
-9.69237e-07
3.28634e-08
1.09116e-08
-9.66929e-09
-7.47094e-09
-3.99573e-09
3.83617e-08
1.86385e-08
0.220633
0.222861
-0.113344
0.0259966
0.105034
0.00374849
-2.87426e-05
8.57579e-05
4.31117
4.34374
3.89972
2.68959
1.46633
3.99444
0.00965319
-0.00742197
-4.32545e-05
0.0239459
0.0058254
0.027947
0.0284739
-0.000377833
0.000151018
0.0129247
0.00107566
0.00654121
0.0023177
0.00952682
-2.841e-05
-3.24797e-06
0.00153679
7.02702e-05
6.96645e-06
-0.000362037
-0.000195935
-5.40504e-05
3.77173e-05
-2.8455e-07
7.00636e-06
-9.59851e-06
-1.26386e-06
5.12786e-06
-0.000152349
-0.000151062
1.76773e-05
-5.12942e-05
1.44567e-05
1.82187e-07
-4.93134e-05
-7.52721e-05
1.60254e-05
-4.34713e-05
-1.39312e-06
-1.31058e-06
1.02122e-05
-1.4001e-06
-4.63651e-05
7.89162e-06
2.81201e-05
-2.02601e-05
3.01649e-07
9.80503e-09
-1.1472e-06
-3.90841e-06
4.63776
4.63614
4.52876
3.39104
4.65939
4.6433
4.56859
4.56839
3.45728
4.62823
4.66456
4.56821
4.60827
4.56981
4.48233
2.93749
2.70991
4.55859
3.93079
4.64637
4.61926
4.47055
3.72026
1.71227
0.0418585
0.0168681
4.5299
4.63779
1.96891
4.23049
3.61236
0.559209
-0.00201568
0.0227302
-0.000190006
-5.39205e-05
-0.000285923
-0.000161489
-0.00120532
-0.000763912
-0.00192837
-0.000601713
-0.000174561
-0.000958857
0.000560003
0.566918
0.00447285
-0.00247798
-0.00483469
-0.00188801
0.00673607
0.52229
-0.00197308
-0.00404022
-0.00313441
-3.52313e-05
-7.89713e-05
-0.000154108
9.94133e-05
2.50342e-05
-6.69204e-05
-0.000582929
-0.000412756
-0.000159016
3.24913
4.18826
0.237584
1.73193
4.6126
4.63746
3.60939
4.38939
2.39795
0.814681
4.66603
4.63506
4.61089
4.64895
4.61017
3.65879
4.63501
4.10699
4.64469
4.6142
1.70037
0.321653
3.24674
4.20122
2.9937
4.62735
3.75324
4.40518
4.65208
2.48427
0.853772
4.19971
-0.00676806
-0.00247658
0.912067
0.00284404
-0.00338233
-0.0014134
-0.000197333
-0.000326873
-2.28901e-05
-0.000866439
-0.00789871
-0.00326152
0.00334691
0.720162
0.00230234
-0.000628522
0.000113627
0.159348
-0.000863976
-0.00194031
-0.00040132
-0.000208707
0.000140073
-0.000117091
-0.000331978
-0.00223787
-0.0223145
1.40654
-0.0108341
-0.00463631
6.28781e-05
8.57371e-05
-0.0397613
-0.0105064
4.3286
3.49566
3.14146
4.23924
4.09585
3.90043
3.73131
1.88659
0.0166456
-0.0138791
0.420743
1.08949
0.0600555
-0.0329317
-0.000916076
-0.000235445
0.000667249
4.45261
-0.00879717
-0.00113701
0.00369471
0.0155513
0.00903271
0.00864059
2.59766
0.000904111
-0.000569176
0.00108741
0.00220932
0.00295927
4.10475
-0.0773457
0.0568434
4.59643
4.54962
4.47832
4.51321
4.65907
4.79608
4.77407
4.6833
3.10264
3.26361
4.1248
4.48336
3.37055
3.68451
3.21851
3.19781
3.96835
2.96319
2.05752
3.5096
3.80813
0.171563
0.933795
0.0907068
0.171538
0.187483
0.0176006
0.0182173
0.106246
3.80145
1.31585
0.921195
3.00952
2.1181
0.871408
0.548397
0.0131026
-0.0521932
1.32246
0.0496085
2.83093
0.0592867
-0.0957776
0.0359017
0.0194128
4.25786
4.46701
3.94219
3.42072
0.295852
0.0377157
2.52079
1.26809
4.33977
3.96809
4.53539
4.59458
1.60421
2.04453
3.43436
2.75755
-0.00142002
-0.0265891
0.00914594
0.0215963
0.00987147
-0.026093
-0.0405681
-0.0715765
-0.0541825
-0.00162348
0.00916591
0.000330945
0.013554
0.00150338
0.00993515
-0.00245732
0.0492262
0.0252942
-0.0256558
-0.0218484
-0.122637
0.244743
-0.0269281
-0.121084
3.71986
1.6886
1.94731
1.44014
1.43166
2.26684
3.29926
2.76109
4.05795
4.16997
0.284858
0.31898
1.01382
0.00574282
1.92428
1.77872
0.0852635
-0.211962
0.0635693
2.08464
-0.122716
1.02728
1.55376
1.29611
-0.0980133
0.0188731
0.0476164
0.299018
0.0810931
0.108301
2.15537
0.539754
2.02208
1.53725
3.66284
0.0165501
2.59169
1.02426
0.160594
0.0153325
-0.0237659
-0.117949
8.10068e-05
-0.000700291
0.0029527
-0.000812642
0.0273801
0.0271448
-0.000572889
-0.000497026
-0.00049524
0.0074326
0.140547
0.0400302
-0.00225731
-0.000322937
-0.00130606
0.00700426
0.00205197
0.0408513
-0.000517555
-0.000844207
0.00359234
-0.000134519
0.00233442
-0.00173375
-0.00328804
-0.00223822
-0.00168595
0.00286309
0.00521124
0.00872187
0.0747483
0.0291958
-0.027383
-0.0275521
0.0279731
0.0570747
0.0443142
-0.0355617
-0.0278776
-0.0224869
-0.0146026
0.274692
-0.0703334
0.0767957
0.0524127
-0.0481517
0.0378672
0.0262031
0.0203716
-0.00791407
-0.046747
-0.0376317
-0.0154166
0.0667916
0.0630681
-0.0332201
-0.0222977
0.0891084
-0.04931
0.10043
-0.134094
0.0288914
0.0400958
0.00317866
0.0289622
0.0481032
-0.000595286
0.000171415
8.47658e-06
-6.11173e-05
0.0510509
0.00434864
0.0544337
0.00840451
0.000323204
-0.00108504
5.59071e-05
-3.06828e-05
-0.000356802
0.118136
0.0315716
0.102518
0.00735017
-1.25472e-05
9.73289e-05
-0.00208826
0.000123028
0.000336754
-0.00306936
0.0185504
0.0538953
-0.000130655
-0.00285707
3.65706e-05
4.52578
4.69732
0.248237
-0.0002186
3.03973
4.55898
4.67278
4.70605
4.6256
4.65595
1.46002
0.0104856
4.48231
3.7507
4.69262
4.65445
2.6634
1.10619
4.63586
4.57218
3.90167
4.64928
1.37652
4.39183
4.40983
4.253
4.67191
4.5014
4.69449
4.28586
2.76647
0.301384
0.00247376
0.000107606
8.90536e-05
-3.38372e-05
-7.92086e-05
0.000316574
0.0093727
0.000129127
-3.30841e-05
1.21321e-05
-1.74193e-05
-0.00017449
-0.000449441
-0.00118699
-0.00212211
0.000625732
-7.18634e-05
-0.0119457
-0.00438458
0.000170903
-0.00085293
0.00111554
2.30614e-05
-8.07991e-05
-0.000155248
-0.00805235
-0.00127948
-0.00402786
1.68899e-05
0.000129332
-0.000118495
0.000100583
0.00414112
0.0041919
-0.00376049
0.00127749
-0.0001839
0.000456005
-0.000717022
-0.0040399
0.000260536
-0.00162442
-0.000340977
0.000265139
3.51873e-06
3.6586
3.80204
0.00022538
-0.000130277
-2.96268e-05
0.380366
0.592001
-0.0551794
3.31079
2.56882
0.227045
1.33993
-0.00373906
-0.00372073
-0.181575
-0.000119922
-0.000108371
-0.0073958
0.0246368
-9.46262e-05
2.65271e-05
-0.000194392
0.000139763
-4.36629e-08
8.69953e-06
1.40899e-06
-1.33186e-05
7.72207e-05
6.81813e-07
2.71766e-06
4.53044e-06
-3.31089e-06
7.20466e-07
-0.000258199
0.000168344
-0.00060512
-0.00202824
7.29678e-05
-8.75466e-05
-2.52632e-05
5.85972e-06
1.16837e-08
1.09419e-07
-0.00015826
0.000206961
0.000153896
-0.000112071
3.60983e-05
1.12619e-05
-1.44941e-06
-1.37394e-05
1.44811e-05
3.30187e-06
4.92541e-05
-6.5426e-07
-1.53567e-05
-0.000383693
-1.3563e-05
8.73625e-05
-0.000155784
3.3261e-05
0.00035676
0.000317862
-0.000290046
4.0378e-05
1.04082e-05
-4.65751e-05
-1.58628e-05
-1.91088e-05
9.28711e-05
2.24029e-05
1.27085e-05
2.00365e-06
-1.04175e-05
-0.00051031
-7.19428e-05
1.47243e-05
-1.00294e-05
0.000196159
-7.01994e-05
-3.97063e-05
-0.00147749
-0.000437934
1.70016e-08
-1.90508e-05
-3.9431e-06
-2.69627e-07
-2.38696e-07
5.94501e-07
-1.14114e-06
-4.23265e-06
1.26564e-05
1.97658e-06
-4.44102e-06
-6.7313e-08
5.29131e-08
3.64384e-06
-5.55816e-07
-4.94337e-06
4.46946e-06
3.92777e-06
-5.36322e-06
3.33674e-07
1.24761e-06
5.38979e-07
-3.2149e-07
8.83769e-08
-4.43351e-07
-2.79935e-06
2.02758e-07
6.39653e-08
-6.34024e-07
1.49954e-07
2.9438e-08
1.33431e-08
-5.33944e-05
-1.07975e-06
-1.15515e-05
4.51029e-06
2.15354e-05
1.14554e-06
1.84697e-06
-3.33471e-06
-1.19856e-06
1.26782e-06
2.22023e-06
1.30817e-06
-2.9952e-07
-4.0262e-07
-2.46187e-07
5.44062e-08
-9.3062e-05
9.98515e-05
6.42766e-05
3.88483e-05
-3.35343e-06
2.26305e-06
-1.99344e-05
-6.1514e-06
1.41276e-05
2.35178e-05
-0.000241401
-0.000370087
4.59148e-06
1.69533e-05
-1.13009e-05
-9.07057e-07
-9.62468e-09
1.03576e-08
-2.00259e-07
-2.84026e-08
1.33648e-08
-2.25138e-09
5.54643e-08
3.45085e-09
-2.24161e-08
1.94362e-09
-3.34327e-09
4.76557e-10
-8.95006e-06
-1.91458e-09
-7.73505e-10
2.78395e-10
2.35834e-10
9.35718e-07
-7.54467e-07
-4.00503e-07
-2.98082e-06
2.80075e-06
6.78823e-07
2.31236e-07
-4.64302e-09
1.29214e-07
9.99667e-07
-4.64412e-07
-4.22808e-08
2.47037e-09
1.72606e-07
-1.98478e-08
