# vtk DataFile Version 2.0
Unstructured Grid by M++
ASCII
DATASET UNSTRUCTURED_GRID
POINTS 1089 float
  0.968750   0.906250 0
  0.968750   0.937500 0
  1.000000   0.906250 0
  1.000000   0.937500 0
  1.000000   0.968750 0
  0.906250   0.906250 0
  0.906250   0.875000 0
  0.906250   0.812500 0
  0.906250   0.843750 0
  0.937500   0.906250 0
  0.937500   0.937500 0
  0.937500   0.843750 0
  0.937500   0.875000 0
  0.968750   0.875000 0
  0.968750   0.656250 0
  0.968750   0.687500 0
  1.000000   0.656250 0
  1.000000   0.625000 0
  1.000000   0.687500 0
  0.906250   0.656250 0
  0.906250   0.687500 0
  0.906250   0.625000 0
  0.906250   0.531250 0
  0.906250   0.562500 0
  0.906250   0.593750 0
  0.937500   0.656250 0
  0.937500   0.687500 0
  0.937500   0.531250 0
  0.937500   0.562500 0
  0.937500   0.593750 0
  0.937500   0.625000 0
  0.968750   0.625000 0
  0.968750   0.593750 0
  1.000000   0.593750 0
  0.968750   0.562500 0
  1.000000   0.562500 0
  1.000000   0.531250 0
  0.968750   0.531250 0
  0.781250   1.000000 0
  0.812500   0.781250 0
  0.812500   0.812500 0
  0.875000   0.843750 0
  0.875000   0.812500 0
  0.875000   0.875000 0
  0.781250   0.781250 0
  0.843750   0.843750 0
  0.843750   0.812500 0
  0.875000   0.781250 0
  0.843750   0.781250 0
  0.781250   0.750000 0
  0.781250   0.718750 0
  0.781250   0.687500 0
  0.812500   0.750000 0
  0.812500   0.718750 0
  0.812500   0.531250 0
  0.812500   0.687500 0
  0.812500   0.656250 0
  0.812500   0.562500 0
  0.812500   0.593750 0
  0.812500   0.625000 0
  0.875000   0.687500 0
  0.875000   0.656250 0
  0.875000   0.593750 0
  0.875000   0.562500 0
  0.875000   0.625000 0
  0.781250   0.531250 0
  0.781250   0.562500 0
  0.781250   0.625000 0
  0.781250   0.593750 0
  0.781250   0.656250 0
  0.843750   0.656250 0
  0.843750   0.593750 0
  0.843750   0.562500 0
  0.843750   0.625000 0
  0.843750   0.687500 0
  0.843750   0.750000 0
  0.875000   0.531250 0
  0.843750   0.531250 0
  0.656250   0.906250 0
  0.656250   0.937500 0
  0.656250   1.000000 0
  0.656250   0.968750 0
  0.687500   1.000000 0
  0.687500   0.968750 0
  0.687500   0.937500 0
  0.718750   0.937500 0
  0.718750   0.968750 0
  0.718750   1.000000 0
  0.656250   0.781250 0
  0.656250   0.812500 0
  0.656250   0.843750 0
  0.656250   0.875000 0
  0.750000   0.968750 0
  0.750000   1.000000 0
  0.750000   0.656250 0
  0.750000   0.625000 0
  0.687500   0.656250 0
  0.687500   0.687500 0
  0.687500   0.625000 0
  0.718750   0.656250 0
  0.718750   0.687500 0
  0.718750   0.718750 0
  0.656250   0.531250 0
  0.656250   0.562500 0
  0.656250   0.656250 0
  0.656250   0.687500 0
  0.656250   0.750000 0
  0.656250   0.718750 0
  0.656250   0.625000 0
  0.656250   0.593750 0
  0.750000   0.687500 0
  0.750000   0.718750 0
  0.750000   0.750000 0
  0.687500   0.531250 0
  0.687500   0.562500 0
  0.687500   0.593750 0
  0.718750   0.625000 0
  0.750000   0.531250 0
  0.718750   0.531250 0
  0.750000   0.562500 0
  0.718750   0.562500 0
  0.718750   0.593750 0
  0.750000   0.593750 0
  0.562500   1.000000 0
  0.562500   0.968750 0
  0.562500   0.937500 0
  0.562500   0.906250 0
  0.562500   0.812500 0
  0.562500   0.843750 0
  0.562500   0.875000 0
  0.625000   0.937500 0
  0.625000   0.906250 0
  0.562500   0.781250 0
  0.625000   0.875000 0
  0.531250   1.000000 0
  0.531250   0.968750 0
  0.531250   0.937500 0
  0.531250   0.812500 0
  0.531250   0.875000 0
  0.531250   0.843750 0
  0.531250   0.906250 0
  0.593750   0.906250 0
  0.593750   0.843750 0
  0.593750   0.875000 0
  0.593750   0.812500 0
  0.625000   0.843750 0
  0.625000   0.812500 0
  0.593750   0.937500 0
  0.625000   1.000000 0
  0.593750   1.000000 0
  0.593750   0.968750 0
  0.625000   0.968750 0
  0.625000   0.781250 0
  0.593750   0.781250 0
  0.562500   0.531250 0
  0.562500   0.750000 0
  0.562500   0.718750 0
  0.562500   0.687500 0
  0.562500   0.656250 0
  0.562500   0.562500 0
  0.562500   0.593750 0
  0.562500   0.625000 0
  0.625000   0.687500 0
  0.625000   0.656250 0
  0.625000   0.593750 0
  0.625000   0.562500 0
  0.625000   0.625000 0
  0.531250   0.531250 0
  0.531250   0.750000 0
  0.531250   0.718750 0
  0.531250   0.687500 0
  0.531250   0.562500 0
  0.531250   0.625000 0
  0.531250   0.593750 0
  0.531250   0.656250 0
  0.593750   0.656250 0
  0.593750   0.593750 0
  0.593750   0.562500 0
  0.593750   0.625000 0
  0.593750   0.687500 0
  0.625000   0.750000 0
  0.593750   0.750000 0
  0.593750   0.718750 0
  0.625000   0.718750 0
  0.625000   0.531250 0
  0.593750   0.531250 0
  0.968750   0.406250 0
  0.968750   0.437500 0
  0.968750   0.468750 0
  0.968750   0.500000 0
  1.000000   0.406250 0
  1.000000   0.375000 0
  1.000000   0.437500 0
  1.000000   0.468750 0
  1.000000   0.500000 0
  0.906250   0.500000 0
  0.906250   0.406250 0
  0.906250   0.437500 0
  0.906250   0.281250 0
  0.906250   0.312500 0
  0.906250   0.343750 0
  0.906250   0.375000 0
  0.937500   0.406250 0
  0.937500   0.500000 0
  0.937500   0.468750 0
  0.937500   0.437500 0
  0.937500   0.281250 0
  0.937500   0.312500 0
  0.937500   0.343750 0
  0.937500   0.375000 0
  0.968750   0.375000 0
  1.000000   0.281250 0
  0.968750   0.281250 0
  1.000000   0.312500 0
  0.968750   0.312500 0
  0.968750   0.343750 0
  1.000000   0.343750 0
  0.968750   0.125000 0
  0.968750   0.156250 0
  0.968750   0.187500 0
  1.000000   0.000000 0
  1.000000   0.156250 0
  1.000000   0.125000 0
  1.000000   0.187500 0
  1.000000   0.218750 0
  0.531250   0.781250 0
  1.000000   0.250000 0
  0.906250   0.250000 0
  0.906250   0.218750 0
  0.937500   0.250000 0
  0.937500   0.218750 0
  0.968750   0.250000 0
  0.906250   0.031250 0
  0.906250   0.000000 0
  0.906250   0.062500 0
  0.906250   0.093750 0
  0.906250   0.125000 0
  0.937500   0.156250 0
  0.937500   0.031250 0
  0.937500   0.000000 0
  0.937500   0.062500 0
  0.937500   0.093750 0
  0.937500   0.125000 0
  1.000000   0.031250 0
  0.968750   0.031250 0
  0.968750   0.000000 0
  1.000000   0.062500 0
  0.968750   0.062500 0
  0.968750   0.093750 0
  1.000000   0.093750 0
  0.781250   0.312500 0
  0.781250   0.343750 0
  0.812500   0.500000 0
  0.812500   0.468750 0
  0.812500   0.437500 0
  0.812500   0.281250 0
  0.812500   0.312500 0
  0.812500   0.343750 0
  0.812500   0.375000 0
  0.875000   0.281250 0
  0.875000   0.406250 0
  0.875000   0.343750 0
  0.875000   0.312500 0
  0.875000   0.375000 0
  0.843750   0.281250 0
  0.843750   0.312500 0
  0.843750   0.375000 0
  0.843750   0.343750 0
  0.781250   0.500000 0
  0.781250   0.468750 0
  0.781250   0.437500 0
  0.781250   0.406250 0
  0.875000   0.500000 0
  0.843750   0.500000 0
  0.843750   0.468750 0
  0.875000   0.468750 0
  0.781250   0.281250 0
  0.843750   0.218750 0
  0.843750   0.250000 0
  0.843750   0.187500 0
  0.843750   0.156250 0
  0.875000   0.218750 0
  0.875000   0.250000 0
  0.875000   0.187500 0
  0.812500   0.062500 0
  0.812500   0.250000 0
  0.812500   0.218750 0
  0.812500   0.187500 0
  0.812500   0.156250 0
  0.812500   0.125000 0
  0.843750   0.093750 0
  0.843750   0.062500 0
  0.875000   0.125000 0
  0.875000   0.093750 0
  0.875000   0.062500 0
  0.781250   0.250000 0
  0.781250   0.218750 0
  0.781250   0.187500 0
  0.093750   0.937500 0
  0.125000   1.000000 0
  0.937500   0.718750 0
  0.250000   0.000000 0
  0.093750   0.968750 0
  0.125000   0.968750 0
  0.000000   0.718750 0
  0.000000   0.750000 0
  0.125000   0.531250 0
  0.125000   0.562500 0
  0.093750   0.531250 0
  0.031250   0.750000 0
  0.125000   0.468750 0
  0.156250   0.468750 0
  0.500000   0.375000 0
  0.156250   0.500000 0
  0.406250   0.406250 0
  0.406250   0.437500 0
  0.406250   0.500000 0
  0.406250   0.468750 0
  0.406250   0.375000 0
  0.750000   0.312500 0
  0.437500   0.406250 0
  0.437500   0.500000 0
  0.437500   0.468750 0
  0.437500   0.437500 0
  0.468750   0.437500 0
  0.468750   0.468750 0
  0.406250   0.281250 0
  0.406250   0.312500 0
  0.062500   0.375000 0
  0.406250   0.343750 0
  0.062500   0.406250 0
  0.500000   0.468750 0
  0.500000   0.500000 0
  0.437500   0.281250 0
  0.437500   0.312500 0
  0.437500   0.343750 0
  0.093750   0.406250 0
  0.437500   0.375000 0
  0.093750   0.437500 0
  0.468750   0.375000 0
  0.125000   0.437500 0
  0.500000   0.281250 0
  0.468750   0.281250 0
  0.500000   0.312500 0
  0.468750   0.312500 0
  0.468750   0.343750 0
  0.500000   0.343750 0
  0.843750   0.906250 0
  0.156250   0.187500 0
  0.468750   0.187500 0
  0.468750   0.218750 0
  0.468750   0.250000 0
  0.406250   0.031250 0
  0.750000   0.812500 0
  0.062500   0.093750 0
  0.406250   0.000000 0
  0.750000   0.781250 0
  0.062500   0.062500 0
  0.500000   0.187500 0
  0.500000   0.218750 0
  0.500000   0.250000 0
  0.437500   0.031250 0
  0.781250   0.812500 0
  0.093750   0.093750 0
  0.437500   0.000000 0
  0.437500   0.062500 0
  0.781250   0.843750 0
  0.093750   0.125000 0
  0.406250   0.187500 0
  0.406250   0.250000 0
  0.406250   0.218750 0
  0.437500   0.250000 0
  0.437500   0.218750 0
  0.437500   0.187500 0
  0.500000   0.000000 0
  0.500000   0.031250 0
  0.468750   0.031250 0
  0.468750   0.000000 0
  0.500000   0.062500 0
  0.468750   0.062500 0
  0.812500   0.843750 0
  0.125000   0.125000 0
  0.812500   0.875000 0
  0.125000   0.156250 0
  0.500000   0.093750 0
  0.843750   0.875000 0
  0.156250   0.156250 0
  1.000000   1.000000 0
  0.312500   0.281250 0
  0.656250   0.218750 0
  0.437500   0.156250 0
  0.312500   0.500000 0
  0.437500   0.125000 0
  0.312500   0.468750 0
  0.437500   0.093750 0
  0.781250   0.031250 0
  0.312500   0.437500 0
  0.312500   0.406250 0
  0.312500   0.312500 0
  0.312500   0.343750 0
  0.312500   0.375000 0
  0.375000   0.437500 0
  0.375000   0.406250 0
  0.375000   0.343750 0
  0.718750   0.281250 0
  0.375000   0.375000 0
  0.968750   1.000000 0
  0.281250   0.281250 0
  0.406250   0.156250 0
  0.281250   0.500000 0
  0.406250   0.125000 0
  0.281250   0.468750 0
[...]
CELL_DATA 1024
SCALARS scalar_value float 1
LOOKUP_TABLE default
-0.022174
-0.0375092
0.0473873
-0.000218059
-0.0763291
-0.00345886
-0.000799986
-0.00536078
-0.0200911
0.00319897
0.0286255
-0.00184831
-0.0451977
-0.000548837
0.000109438
-0.00112884
-0.0191057
0.0258887
0.0291893
0.0377425
0.0130248
0.000146259
-4.10543e-05
-4.53621e-06
-0.000383236
0.000102671
-0.00620083
0.0314628
-0.012873
-0.0872713
-0.0227906
0.000151094
0.0396535
0.0179621
-0.000649271
-0.00797738
0.00947696
0.00926799
0.039606
0.0354169
0.0227771
-0.009916
0.0882294
0.0487919
-0.00175309
0.0795989
0.00233672
0.107331
0.00980355
0.0229809
0.00659656
-0.0581019
-0.0970564
-0.00336536
0.00662695
0.0016536
0.00455447
0.0106903
0.0475933
0.00221176
0.00164849
0.00820986
0.0157978
-0.00122904
4.84921e-05
-4.41538e-05
-3.77997e-07
5.69564e-06
-0.00211333
0.00275878
4.81822e-05
0.000106706
4.02608e-06
-2.89629e-07
-0.0026893
-0.0023244
0.178212
0.0237802
0.93273
1.32473e-05
-0.000899967
-6.68744e-06
-7.9345e-07
-0.0331876
0.00276868
0.0547398
0.3222
1.56529
2.57409e-06
-1.17948e-06
6.63082e-05
-0.000108795
-0.00189118
0.140434
0.530011
0.0345148
0.680912
1.28813
1.3366
0.870637
2.1878
3.04829
3.33403
3.19295
3.94121
2.5382
2.39964
4.5588
4.40172
4.1319
3.17146
0.0184877
0.0247527
0.130297
0.0813574
0.0186561
0.546422
-0.091631
-0.107622
0.0283435
0.511856
0.0333993
0.0206977
0.203054
0.0740609
0.0256775
0.245329
2.58919
2.39911
-9.29667e-06
2.16783e-05
1.82858
2.68802
0.341195
-0.00317874
0.000382295
4.75815e-06
3.31018e-06
7.76298e-06
2.52795
3.30953
-0.00122101
0.329021
-0.000735373
0.000167975
-1.19285e-05
-2.91971e-08
0.00307013
0.000433165
-4.56206e-05
-0.0122107
0.917669
-4.96508e-06
3.58811e-06
-0.000477078
-0.000168906
0.00993724
0.0640782
1.86109
2.97123
3.75374
2.4048
2.91763
1.97289
2.45982
0.916782
0.165834
0.81492
1.72668
3.95858
3.21168
4.10329
3.18493
2.33024
4.19052
4.14347
3.75992
3.24455
4.59896
4.44969
4.26246
4.62953
4.52817
4.59629
4.01897
3.59905
4.56431
4.36122
4.63247
4.49167
4.05297
4.21581
0.00016967
-0.000177151
-0.000352124
-8.0468e-05
-0.000106087
-8.9e-05
0.000101124
0.000289411
-8.93388e-05
-0.000952617
-0.000622381
0.000185754
7.32525e-05
0.00015927
-0.000208286
0.000359328
0.000102595
7.17458e-05
5.13332e-05
-6.67006e-05
3.17289e-05
-8.66369e-05
0.0137224
0.000945905
0.52571
0.147378
-8.2218e-05
-1.50398e-05
0.00710783
-0.00940851
-0.000198138
0.00490481
0.000877985
5.07414e-05
-0.000382507
-0.0003529
-0.000372117
0.00242419
0.00258529
0.00064496
0.000275504
-0.00312679
0.000908608
-0.000988012
-0.00265106
-0.00839842
-0.0292428
0.170046
0.57492
-0.0158837
-0.00835261
0.00416883
-0.00467549
0.00298621
-0.00262928
-0.0080942
0.0465074
0.0168887
0.0883563
0.0428992
0.00783176
0.00420619
-0.00048198
0.00298956
0.00168399
-0.00452595
5.24806e-05
0.0002607
0.000201384
0.000952734
1.09603e-05
-0.000192387
1.94242e-05
-1.69308e-06
2.5126e-06
1.39173e-05
-0.00292209
0.000415921
2.0292e-05
-4.33172e-06
0.000106521
0.000173663
9.74866e-05
-0.000755611
-6.70189e-05
5.62594e-05
1.16199e-05
3.29701e-05
1.34355e-06
2.53521e-06
-5.31791e-06
6.58435e-06
-3.9304e-07
4.77483e-08
-1.00437e-06
1.12641e-06
-1.84183e-09
1.57449e-08
-2.70652e-10
0
-2.79953e-06
-3.02821e-05
-1.15722e-06
1.0189e-06
1.21576e-06
1.93166e-06
-1.98236e-07
-1.16016e-05
-2.44599e-06
8.94823e-06
-8.55989e-08
-1.42436e-06
8.13141e-07
2.96535e-06
-2.88516e-06
-3.42319e-07
3.71513e-07
1.61365e-07
-5.22876e-08
-8.5427e-07
-1.78654e-07
-3.09116e-08
0
-2.34729e-08
7.15817e-08
2.01683e-09
2.83669e-07
-1.90778e-07
0.393608
0.400104
0.894248
0.275933
0.212941
0.0303727
-0.00290268
0.000149694
4.4946
4.48873
4.19706
3.50405
2.7669
4.31031
0.240399
0.00218349
2.05945e-05
0.102785
0.61248
0.0483459
0.0394433
-4.24893e-05
-0.000336081
0.0242255
0.00394206
0.00585701
0.00332264
0.00453657
0.0117134
-0.000126601
0.00214912
0.00052309
0.000142079
-0.000364717
0.00103043
-6.94558e-05
-9.10162e-05
7.79789e-05
-2.51938e-05
3.20241e-05
-1.23913e-05
3.19628e-06
-0.000263458
-5.40004e-05
-6.29765e-05
-2.43774e-06
-1.60562e-05
-2.30752e-05
-3.12531e-05
0.00010066
-4.93743e-05
4.4695e-05
-8.84311e-07
5.51158e-07
-1.47875e-05
-1.28346e-05
5.5139e-05
-3.70161e-05
-6.70839e-05
-1.77043e-05
-1.45565e-07
2.5727e-07
-5.56403e-06
2.70225e-06
4.63573
4.59508
4.60302
3.92386
4.65207
4.64403
4.49898
4.61294
3.99087
4.62634
4.65967
4.52732
4.518
4.44394
4.39485
2.59632
2.11268
4.50673
3.76523
4.62899
4.6393
4.599
4.2149
2.93327
-0.000594163
0.595151
4.61876
4.64476
2.73156
4.40537
4.03144
1.03607
-0.00250117
0.085855
0.000629707
0.000194455
0.000926526
0.00130358
-0.000815843
0.00149836
0.00650896
0.000343477
6.75559e-05
0.000473506
-0.000223989
1.31412
-0.0140441
-0.000234888
-0.00132264
-0.00937728
-0.015836
1.30209
0.00190916
-0.000536118
-0.00941342
-6.28866e-05
6.86642e-05
-5.64926e-05
5.32746e-05
6.58789e-06
5.22937e-06
-0.000841321
-0.000177304
6.43235e-05
3.09521
4.10007
0.141886
1.49406
4.58699
4.64391
3.48061
4.32451
2.18782
0.614637
4.65806
4.63563
4.63425
4.64879
4.63796
4.06954
4.64419
4.35586
4.6495
4.59105
1.44803
0.174679
3.08663
4.11847
3.65718
4.61052
3.55716
4.31878
4.65025
2.17948
0.579189
4.44125
-0.0137955
-0.00423333
1.67471
-0.030108
-0.000540324
-5.16662e-05
0.000119467
9.00488e-05
2.90048e-05
0.00114085
-0.00652772
0.00214759
-0.0122598
1.54181
-0.00168492
-0.00271722
0.0107346
0.485667
-0.000905867
-0.00289809
-0.000118705
-8.7682e-05
0.000414355
0.000149482
0.000283747
0.00177875
0.00404757
2.20647
-0.00496008
-0.00116572
8.9071e-05
0.000151568
-0.00905269
0.0104625
4.14638
2.45911
2.01969
3.94467
3.54974
3.12566
2.80891
0.828043
0.012558
0.0263019
0.0428556
0.302455
-0.00758441
0.0156801
0.000351775
-0.000104886
-0.000225121
4.26611
0.000192586
0.00522352
-0.00493577
2.86499e-05
0.00169486
-0.00487368
1.51941
-0.00106945
0.000259561
0.00111611
-0.00158508
-7.88023e-05
3.9993
-0.0294929
-0.0162845
4.61329
4.44602
4.40079
4.35381
4.63844
4.77037
4.77514
4.71478
2.18602
2.56447
3.76845
4.28941
2.83256
3.23085
2.61725
2.60151
3.77144
2.06814
0.941116
2.91342
3.42665
-0.0558174
0.136773
0.0770844
0.111057
0.0751423
0.0302392
0.00122289
0.0189195
4.49548
3.74792
3.31958
4.47907
4.18376
3.11115
2.92804
2.28183
1.05068
3.70213
2.54443
4.31514
0.24135
1.1403
0.062693
0.118367
4.62514
4.63949
4.61096
4.55034
2.7274
1.51854
4.31973
3.7356
4.60676
4.60174
4.59982
4.63212
3.30933
3.74431
4.52095
4.23706
0.0729664
-0.0302208
0.00568355
0.0180902
0.0460929
0.0449337
0.0323204
0.0250989
0.0119156
0.0187511
0.0192778
0.0288959
0.0157585
0.0250961
0.00816625
-0.00562349
0.507322
0.0142447
-0.0630057
-0.102719
0.0807887
0.515605
-0.0920832
-0.0102701
4.17537
2.65028
2.83135
2.63137
2.94359
3.12368
3.88988
3.50095
4.20917
4.01886
1.25945
1.45565
1.77398
1.64888
1.74936
1.27834
0.119724
-0.228976
0.51626
2.12763
-0.28538
0.129128
1.4453
1.30855
-0.0285798
0.0176762
0.69463
0.335362
-0.031824
0.912743
2.56192
2.51718
3.1119
3.35943
4.31117
0.0421075
4.00208
2.87168
1.07265
0.039632
-0.127215
-0.270988
0.00278119
-0.000386439
-0.0136595
-0.0184011
0.0317925
0.0527251
-0.00227802
2.61051e-05
0.00199956
0.0183294
0.994094
0.387743
0.0110593
-0.000322884
0.0556504
0.154235
0.0140888
0.137493
4.84873e-05
0.00207306
-0.00390559
0.00447102
-0.00148873
-0.00232263
-0.00198746
-0.000361966
-0.00475242
-0.00267883
-0.0094735
-0.00500818
-0.0240545
0.0613129
-0.00317944
-0.0296769
0.0562016
0.0130452
0.0483659
-0.0173115
-0.0433001
-0.01913
-0.00325889
0.108234
-0.0531395
0.14793
0.0673788
0.0172428
0.0213003
0.0371629
0.0236888
-0.0379357
-0.0591033
-0.00912588
-0.000536291
0.0333527
0.0571942
-0.0257119
-0.074741
0.0982501
0.0289118
-0.121333
-0.0934136
0.0455022
0.0196298
0.028219
0.00375749
0.00558698
0.00526571
-0.000453288
-0.000119951
0.00020589
0.0316039
0.0487344
0.00598579
0.0162133
-0.000548319
0.0107938
-0.000237722
0.000139834
-0.000244194
0.0324639
0.0515254
0.0773472
0.0942566
-0.000115142
0.000137145
0.01719
0.000147121
0.0661236
0.0380295
0.0631934
0.0785456
-0.00299326
0.0109227
-0.000977695
4.49441
4.59101
0.804259
-0.0163973
3.77881
4.68036
4.66881
4.71188
4.58145
4.63895
2.60074
0.263324
4.63469
4.20791
4.67214
4.65358
2.38676
0.79648
4.65721
4.4997
3.72023
4.64934
2.31922
4.52442
4.34786
4.1704
4.58526
4.50721
4.76312
4.44278
3.5928
1.03225
-0.000252734
0.00272744
-6.24997e-05
4.03248e-05
-6.54517e-05
3.58543e-05
-0.0150633
0.00024859
-3.73535e-05
7.66781e-05
3.11704e-05
0.000245985
-2.43502e-05
0.00107235
-0.00169693
-0.01034
-0.000151529
-0.0104663
-0.0010995
0.000573784
0.00377994
0.00329376
7.67864e-06
-0.000155525
3.17499e-05
-0.00824141
0.000173092
-0.000990894
0.000425965
0.000269747
4.50244e-06
-3.7042e-05
-0.00277797
0.00587205
-0.0173061
-0.0156912
-0.00160074
0.000346699
-0.00515096
-0.0120243
0.000264341
0.00221819
-0.00139642
-0.000526773
0.000300155
4.20852
4.29016
-0.000238084
0.000196354
-5.0071e-05
1.36259
1.29025
0.559324
3.9204
3.21745
0.492158
1.93174
0.00240977
0.000954297
-0.10048
-0.000208818
-2.43806e-05
-0.08028
0.0294172
7.02195e-05
-2.60206e-05
1.14275e-05
-5.21237e-05
2.00143e-05
-4.38548e-07
4.04203e-06
2.46681e-05
-6.6394e-05
-4.86623e-07
1.84471e-06
-1.51859e-06
4.73263e-07
6.58384e-07
-7.11861e-05
-0.000148832
-0.000128644
-0.00035926
-7.83229e-05
3.84929e-05
5.25853e-05
-1.39147e-05
8.45488e-07
1.63388e-07
-8.25156e-05
0.000630615
-4.83747e-05
5.47188e-05
-4.76345e-05
-6.74745e-06
-1.00065e-06
3.92757e-05
-1.26595e-05
2.5431e-08
-4.36155e-05
4.70508e-05
-0.000175979
0.0018909
-7.14826e-05
-0.000143946
0.000320641
0.000183962
-0.000339915
-0.000570922
-1.26583e-05
-4.66094e-05
-4.17903e-05
0.000133769
-1.12875e-05
1.47432e-05
-0.000162677
-1.5778e-05
-6.16126e-06
3.39743e-05
3.97454e-05
-0.000961962
-0.00010511
-3.02388e-06
0.000138722
-0.000141457
-0.000301229
1.59016e-05
-0.00411028
-0.00105608
-2.13502e-08
7.15855e-05
0.000118965
1.75356e-06
-6.78628e-08
1.54774e-06
-1.08589e-05
2.12971e-05
-3.62497e-05
9.33828e-06
7.22364e-06
3.29505e-07
1.17146e-07
-2.00551e-06
-6.74767e-08
3.5045e-06
-8.65296e-06
7.54441e-06
1.22287e-06
-9.27325e-07
5.71929e-07
-4.04335e-06
6.20223e-07
-3.38894e-08
-1.97933e-06
1.55871e-05
-4.30236e-07
8.08456e-07
5.3853e-07
-2.12925e-07
-5.82043e-08
-5.32435e-08
2.17691e-05
-7.67612e-07
5.88535e-06
-1.85281e-05
-4.5225e-05
-2.18809e-06
1.82553e-05
1.56948e-06
3.11085e-06
-2.5126e-06
2.31014e-06
-2.37863e-06
1.35757e-06
1.35246e-06
-1.07635e-07
-3.14818e-07
2.73403e-05
-0.000136174
1.28923e-05
-0.000142985
-9.63464e-06
6.94038e-07
3.42217e-05
3.3797e-05
-0.000169048
4.50156e-06
-0.000295535
-0.000221491
2.01113e-05
-2.05938e-05
7.59462e-05
-2.92438e-06
-2.32195e-07
3.86824e-07
7.52399e-07
1.66116e-08
-1.71813e-08
1.10848e-07
-6.34291e-09
-3.70797e-09
3.20548e-08
-2.88842e-08
1.6338e-08
-2.15602e-09
7.26024e-06
-5.17007e-09
1.0247e-09
1.26747e-09
-6.94811e-10
-1.87058e-08
1.64545e-06
-2.24091e-06
1.44039e-06
-2.49086e-05
-1.62491e-06
-5.51957e-07
-3.87792e-08
-5.06519e-07
-1.03168e-06
1.03392e-06
1.44973e-07
4.54009e-09
8.92837e-08
4.33957e-08
