# vtk DataFile Version 2.0
Unstructured Grid by M++
ASCII
DATASET UNSTRUCTURED_GRID
POINTS 1089 float
  0.968750   0.906250 0
  0.968750   0.937500 0
  1.000000   0.906250 0
  1.000000   0.937500 0
  1.000000   0.968750 0
  0.906250   0.906250 0
  0.906250   0.875000 0
  0.906250   0.812500 0
  0.906250   0.843750 0
  0.937500   0.906250 0
  0.937500   0.937500 0
  0.937500   0.843750 0
  0.937500   0.875000 0
  0.968750   0.875000 0
  0.968750   0.656250 0
  0.968750   0.687500 0
  1.000000   0.656250 0
  1.000000   0.625000 0
  1.000000   0.687500 0
  0.906250   0.656250 0
  0.906250   0.687500 0
  0.906250   0.625000 0
  0.906250   0.531250 0
  0.906250   0.562500 0
  0.906250   0.593750 0
  0.937500   0.656250 0
  0.937500   0.687500 0
  0.937500   0.531250 0
  0.937500   0.562500 0
  0.937500   0.593750 0
  0.937500   0.625000 0
  0.968750   0.625000 0
  0.968750   0.593750 0
  1.000000   0.593750 0
  0.968750   0.562500 0
  1.000000   0.562500 0
  1.000000   0.531250 0
  0.968750   0.531250 0
  0.781250   1.000000 0
  0.812500   0.781250 0
  0.812500   0.812500 0
  0.875000   0.843750 0
  0.875000   0.812500 0
  0.875000   0.875000 0
  0.781250   0.781250 0
  0.843750   0.843750 0
  0.843750   0.812500 0
  0.875000   0.781250 0
  0.843750   0.781250 0
  0.781250   0.750000 0
  0.781250   0.718750 0
  0.781250   0.687500 0
  0.812500   0.750000 0
  0.812500   0.718750 0
  0.812500   0.531250 0
  0.812500   0.687500 0
  0.812500   0.656250 0
  0.812500   0.562500 0
  0.812500   0.593750 0
  0.812500   0.625000 0
  0.875000   0.687500 0
  0.875000   0.656250 0
  0.875000   0.593750 0
  0.875000   0.562500 0
  0.875000   0.625000 0
  0.781250   0.531250 0
  0.781250   0.562500 0
  0.781250   0.625000 0
  0.781250   0.593750 0
  0.781250   0.656250 0
  0.843750   0.656250 0
  0.843750   0.593750 0
  0.843750   0.562500 0
  0.843750   0.625000 0
  0.843750   0.687500 0
  0.843750   0.750000 0
  0.875000   0.531250 0
  0.843750   0.531250 0
  0.656250   0.906250 0
  0.656250   0.937500 0
  0.656250   1.000000 0
  0.656250   0.968750 0
  0.687500   1.000000 0
  0.687500   0.968750 0
  0.687500   0.937500 0
  0.718750   0.937500 0
  0.718750   0.968750 0
  0.718750   1.000000 0
  0.656250   0.781250 0
  0.656250   0.812500 0
  0.656250   0.843750 0
  0.656250   0.875000 0
  0.750000   0.968750 0
  0.750000   1.000000 0
  0.750000   0.656250 0
  0.750000   0.625000 0
  0.687500   0.656250 0
  0.687500   0.687500 0
  0.687500   0.625000 0
  0.718750   0.656250 0
  0.718750   0.687500 0
  0.718750   0.718750 0
  0.656250   0.531250 0
  0.656250   0.562500 0
  0.656250   0.656250 0
  0.656250   0.687500 0
  0.656250   0.750000 0
  0.656250   0.718750 0
  0.656250   0.625000 0
  0.656250   0.593750 0
  0.750000   0.687500 0
  0.750000   0.718750 0
  0.750000   0.750000 0
  0.687500   0.531250 0
  0.687500   0.562500 0
  0.687500   0.593750 0
  0.718750   0.625000 0
  0.750000   0.531250 0
  0.718750   0.531250 0
  0.750000   0.562500 0
  0.718750   0.562500 0
  0.718750   0.593750 0
  0.750000   0.593750 0
  0.562500   1.000000 0
  0.562500   0.968750 0
  0.562500   0.937500 0
  0.562500   0.906250 0
  0.562500   0.812500 0
  0.562500   0.843750 0
  0.562500   0.875000 0
  0.625000   0.937500 0
  0.625000   0.906250 0
  0.562500   0.781250 0
  0.625000   0.875000 0
  0.531250   1.000000 0
  0.531250   0.968750 0
  0.531250   0.937500 0
  0.531250   0.812500 0
  0.531250   0.875000 0
  0.531250   0.843750 0
  0.531250   0.906250 0
  0.593750   0.906250 0
  0.593750   0.843750 0
  0.593750   0.875000 0
  0.593750   0.812500 0
  0.625000   0.843750 0
  0.625000   0.812500 0
  0.593750   0.937500 0
  0.625000   1.000000 0
  0.593750   1.000000 0
  0.593750   0.968750 0
  0.625000   0.968750 0
  0.625000   0.781250 0
  0.593750   0.781250 0
  0.562500   0.531250 0
  0.562500   0.750000 0
  0.562500   0.718750 0
  0.562500   0.687500 0
  0.562500   0.656250 0
  0.562500   0.562500 0
  0.562500   0.593750 0
  0.562500   0.625000 0
  0.625000   0.687500 0
  0.625000   0.656250 0
  0.625000   0.593750 0
  0.625000   0.562500 0
  0.625000   0.625000 0
  0.531250   0.531250 0
  0.531250   0.750000 0
  0.531250   0.718750 0
  0.531250   0.687500 0
  0.531250   0.562500 0
  0.531250   0.625000 0
  0.531250   0.593750 0
  0.531250   0.656250 0
  0.593750   0.656250 0
  0.593750   0.593750 0
  0.593750   0.562500 0
  0.593750   0.625000 0
  0.593750   0.687500 0
  0.625000   0.750000 0
  0.593750   0.750000 0
  0.593750   0.718750 0
  0.625000   0.718750 0
  0.625000   0.531250 0
  0.593750   0.531250 0
  0.968750   0.406250 0
  0.968750   0.437500 0
  0.968750   0.468750 0
  0.968750   0.500000 0
  1.000000   0.406250 0
  1.000000   0.375000 0
  1.000000   0.437500 0
  1.000000   0.468750 0
  1.000000   0.500000 0
  0.906250   0.500000 0
  0.906250   0.406250 0
  0.906250   0.437500 0
  0.906250   0.281250 0
  0.906250   0.312500 0
  0.906250   0.343750 0
  0.906250   0.375000 0
  0.937500   0.406250 0
  0.937500   0.500000 0
  0.937500   0.468750 0
  0.937500   0.437500 0
  0.937500   0.281250 0
  0.937500   0.312500 0
  0.937500   0.343750 0
  0.937500   0.375000 0
  0.968750   0.375000 0
  1.000000   0.281250 0
  0.968750   0.281250 0
  1.000000   0.312500 0
  0.968750   0.312500 0
  0.968750   0.343750 0
  1.000000   0.343750 0
  0.968750   0.125000 0
  0.968750   0.156250 0
  0.968750   0.187500 0
  1.000000   0.000000 0
  1.000000   0.156250 0
  1.000000   0.125000 0
  1.000000   0.187500 0
  1.000000   0.218750 0
  0.531250   0.781250 0
  1.000000   0.250000 0
  0.906250   0.250000 0
  0.906250   0.218750 0
  0.937500   0.250000 0
  0.937500   0.218750 0
  0.968750   0.250000 0
  0.906250   0.031250 0
  0.906250   0.000000 0
  0.906250   0.062500 0
  0.906250   0.093750 0
  0.906250   0.125000 0
  0.937500   0.156250 0
  0.937500   0.031250 0
  0.937500   0.000000 0
  0.937500   0.062500 0
  0.937500   0.093750 0
  0.937500   0.125000 0
  1.000000   0.031250 0
  0.968750   0.031250 0
  0.968750   0.000000 0
  1.000000   0.062500 0
  0.968750   0.062500 0
  0.968750   0.093750 0
  1.000000   0.093750 0
  0.781250   0.312500 0
  0.781250   0.343750 0
  0.812500   0.500000 0
  0.812500   0.468750 0
  0.812500   0.437500 0
  0.812500   0.281250 0
  0.812500   0.312500 0
  0.812500   0.343750 0
  0.812500   0.375000 0
  0.875000   0.281250 0
  0.875000   0.406250 0
  0.875000   0.343750 0
  0.875000   0.312500 0
  0.875000   0.375000 0
  0.843750   0.281250 0
  0.843750   0.312500 0
  0.843750   0.375000 0
  0.843750   0.343750 0
  0.781250   0.500000 0
  0.781250   0.468750 0
  0.781250   0.437500 0
  0.781250   0.406250 0
  0.875000   0.500000 0
  0.843750   0.500000 0
  0.843750   0.468750 0
  0.875000   0.468750 0
  0.781250   0.281250 0
  0.843750   0.218750 0
  0.843750   0.250000 0
  0.843750   0.187500 0
  0.843750   0.156250 0
  0.875000   0.218750 0
  0.875000   0.250000 0
  0.875000   0.187500 0
  0.812500   0.062500 0
  0.812500   0.250000 0
  0.812500   0.218750 0
  0.812500   0.187500 0
  0.812500   0.156250 0
  0.812500   0.125000 0
  0.843750   0.093750 0
  0.843750   0.062500 0
  0.875000   0.125000 0
  0.875000   0.093750 0
  0.875000   0.062500 0
  0.781250   0.250000 0
  0.781250   0.218750 0
  0.781250   0.187500 0
  0.093750   0.937500 0
  0.125000   1.000000 0
  0.937500   0.718750 0
  0.250000   0.000000 0
  0.093750   0.968750 0
  0.125000   0.968750 0
  0.000000   0.718750 0
  0.000000   0.750000 0
  0.125000   0.531250 0
  0.125000   0.562500 0
  0.093750   0.531250 0
  0.031250   0.750000 0
  0.125000   0.468750 0
  0.156250   0.468750 0
  0.500000   0.375000 0
  0.156250   0.500000 0
  0.406250   0.406250 0
  0.406250   0.437500 0
  0.406250   0.500000 0
  0.406250   0.468750 0
  0.406250   0.375000 0
  0.750000   0.312500 0
  0.437500   0.406250 0
  0.437500   0.500000 0
  0.437500   0.468750 0
  0.437500   0.437500 0
  0.468750   0.437500 0
  0.468750   0.468750 0
  0.406250   0.281250 0
  0.406250   0.312500 0
  0.062500   0.375000 0
  0.406250   0.343750 0
  0.062500   0.406250 0
  0.500000   0.468750 0
  0.500000   0.500000 0
  0.437500   0.281250 0
  0.437500   0.312500 0
  0.437500   0.343750 0
  0.093750   0.406250 0
  0.437500   0.375000 0
  0.093750   0.437500 0
  0.468750   0.375000 0
  0.125000   0.437500 0
  0.500000   0.281250 0
  0.468750   0.281250 0
  0.500000   0.312500 0
  0.468750   0.312500 0
  0.468750   0.343750 0
  0.500000   0.343750 0
  0.843750   0.906250 0
  0.156250   0.187500 0
  0.468750   0.187500 0
  0.468750   0.218750 0
  0.468750   0.250000 0
  0.406250   0.031250 0
  0.750000   0.812500 0
  0.062500   0.093750 0
  0.406250   0.000000 0
  0.750000   0.781250 0
  0.062500   0.062500 0
  0.500000   0.187500 0
  0.500000   0.218750 0
  0.500000   0.250000 0
  0.437500   0.031250 0
  0.781250   0.812500 0
  0.093750   0.093750 0
  0.437500   0.000000 0
  0.437500   0.062500 0
  0.781250   0.843750 0
  0.093750   0.125000 0
  0.406250   0.187500 0
  0.406250   0.250000 0
  0.406250   0.218750 0
  0.437500   0.250000 0
  0.437500   0.218750 0
  0.437500   0.187500 0
  0.500000   0.000000 0
  0.500000   0.031250 0
  0.468750   0.031250 0
  0.468750   0.000000 0
  0.500000   0.062500 0
  0.468750   0.062500 0
  0.812500   0.843750 0
  0.125000   0.125000 0
  0.812500   0.875000 0
  0.125000   0.156250 0
  0.500000   0.093750 0
  0.843750   0.875000 0
  0.156250   0.156250 0
  1.000000   1.000000 0
  0.312500   0.281250 0
  0.656250   0.218750 0
  0.437500   0.156250 0
  0.312500   0.500000 0
  0.437500   0.125000 0
  0.312500   0.468750 0
  0.437500   0.093750 0
  0.781250   0.031250 0
  0.312500   0.437500 0
  0.312500   0.406250 0
  0.312500   0.312500 0
  0.312500   0.343750 0
  0.312500   0.375000 0
  0.375000   0.437500 0
  0.375000   0.406250 0
  0.375000   0.343750 0
  0.718750   0.281250 0
  0.375000   0.375000 0
  0.968750   1.000000 0
  0.281250   0.281250 0
  0.406250   0.156250 0
  0.281250   0.500000 0
  0.406250   0.125000 0
  0.281250   0.468750 0
[...]
CELL_DATA 1024
SCALARS scalar_value float 1
LOOKUP_TABLE default
0.083663
0.0350367
0.0135908
-0.0338304
0.114777
0.161675
0.0715664
0.0445901
0.0244037
-0.0193712
0.0238652
0.0946123
0.0714918
0.0489095
0.0279615
-0.00112726
-0.0108266
-0.0229488
0.0614122
0.000505525
0.024667
0.040003
0.0111218
0.00306231
-0.00466543
-0.020621
0.078747
0.0602594
0.0630239
0.0392465
-0.00594761
0.0571517
0.0364822
0.0405056
-0.00263174
-0.00409891
0.00120661
-0.00127184
0.0203153
0.0292653
-0.00465044
-0.00606711
-0.00388173
0.0119027
0.0993247
0.0865758
0.0133874
0.0470621
-0.0221744
-0.0181061
0.0159045
0.0590177
0.0443387
-0.00148757
0.00517128
-0.00206933
0.000894663
-0.00156342
0.0249105
-0.00106392
0.0099874
0.00157277
-0.00117163
-0.000512727
0.0073129
0.147819
-0.000327005
0.00121704
0.410523
0.110674
0.000697266
0.0274772
0.00170661
-0.000355873
0.283141
0.490641
0.152019
0.0563803
0.0768807
-0.0533645
-0.0603251
0.00593085
-6.15336e-05
0.0717617
0.0471671
-0.0213644
-0.0362819
0.0286806
0.00101915
-0.000955747
-0.0566648
0.124291
0.0967307
-0.0779902
0.014147
-0.146021
-0.0248858
-0.0103837
0.055502
0.0823982
0.0201306
-0.0199608
-0.0174369
0.0204057
0.0213167
-0.0656548
0.0210644
-0.0122026
-0.0568615
0.0441249
0.0163946
0.00203437
0.00490943
0.00645629
-0.0109871
-0.0173991
-0.0867761
0.0566922
0.0284852
-0.010979
0.0173829
-0.00270054
-0.000318883
0.0255898
-0.00466267
0.0891293
0.0731576
-0.00126088
-0.0933017
1.53324
0.0918226
0.979889
1.42897
0.863928
1.70853
2.84655
2.59745
-0.0261883
0.187077
-0.0416592
-0.0551402
1.21796
-0.0940746
1.93819
0.924394
0.00482358
0.00010561
0.920618
0.068444
-0.0122209
0.220339
0.0576951
0.0133878
0.000722125
0.500296
-0.0464418
1.34124
0.0567913
0.0643046
0.0612022
0.14249
4.33466
3.07375
4.59518
4.61758
4.46603
4.2539
4.42025
4.32325
2.33513
4.64617
4.65041
3.65586
4.5777
2.4684
2.84032
0.0554264
-0.120516
0.0646691
-0.0417296
-0.0218837
-0.142494
1.60097
-0.0298525
0.116985
0.076453
0.266138
0.68487
0.213205
1.4988
3.57975
4.60329
3.8392
2.45577
3.40087
1.22738
1.38285
0.800806
0.307239
4.14402
4.32005
4.45988
4.20497
2.68314
0.055776
0.813656
1.21595
0.262543
-0.0600191
3.31677
2.611
3.00904
3.38361
1.74332
3.23719
3.18284
4.22142
3.59941
3.64957
3.9193
4.50425
4.65709
4.19284
4.38895
-0.0136082
-0.0413038
0.638882
-0.0316034
-0.0514856
-0.0634062
-0.0778643
-0.0436961
-0.0249347
-0.12986
-0.100804
-0.074042
-0.0616309
0.164585
3.91927
4.6189
4.63732
-0.0577292
0.590191
2.32248
4.40475
0.741908
0.910175
3.05906
3.8856
3.39925
3.91179
3.08107
0.562687
0.687403
1.04103
1.08961
-0.00168853
-0.00395162
-4.17407e-06
-5.3855e-06
-5.53572e-06
-0.00026935
-1.69952e-05
-0.000132033
1.88689e-07
1.05519e-07
2.69586e-08
-1.10856e-06
-0.00212079
-0.000402454
-2.24348e-07
4.38622e-08
-4.05702e-07
-3.73674e-05
-8.14242e-05
-0.000526796
-8.52535e-07
1.34449e-06
-1.68227e-08
-5.75701e-06
6.54577e-08
-7.67457e-09
-1.51011e-08
-9.24877e-08
-1.22563e-09
-1.26426e-08
3.01496e-08
-4.92437e-09
2.50808e-10
-5.95706e-10
0
0
-6.20039e-07
-5.46758e-07
8.04071e-08
-3.68897e-08
-1.1989e-07
2.05746e-07
-1.86813e-07
2.38897e-07
6.60892e-09
3.67942e-08
-1.52257e-08
-3.7386e-08
3.20145e-08
5.85261e-08
-4.45016e-08
3.56289e-09
-4.92104e-09
-2.37166e-09
1.3262e-09
-1.11092e-08
3.86297e-09
2.73504e-09
-2.49558e-10
7.77782e-10
-7.95898e-10
-2.0651e-10
5.37756e-09
-1.45414e-09
-0.0463087
-0.00277444
0.0723477
-0.0381827
-0.000251921
-0.000504276
-0.000452252
0.000155083
2.88272
0.608671
1.75848
-0.041299
-0.0109353
0.00642859
-0.00410472
-0.000162578
-1.25082e-05
-0.0139601
0.0257772
-0.00857289
-0.000531689
-8.24066e-05
-2.33549e-05
-5.28773e-05
9.76524e-05
-0.00175423
-5.30212e-05
-0.00609738
-0.000786775
-4.55778e-06
-3.78327e-06
1.15784e-05
2.38365e-05
-0.000204915
0.000144802
-4.96667e-06
2.37994e-06
1.35796e-05
-5.18322e-06
3.08845e-06
1.7802e-06
4.08923e-07
-0.000154671
-8.46031e-05
-2.07163e-05
-1.61213e-05
-3.53238e-06
-4.19917e-06
-1.90479e-05
7.7718e-06
3.25134e-06
-1.20669e-06
-1.68073e-06
1.16851e-06
1.92924e-06
-1.80856e-06
-3.11649e-06
6.6217e-07
2.467e-06
5.64512e-07
-1.14332e-07
6.86823e-07
-4.14364e-07
-4.7398e-07
4.11985
4.52877
1.86251
-0.0410089
4.36197
4.68456
3.82302
2.13078
0.00435106
4.73759
4.39003
4.6686
4.57846
4.61778
4.60896
4.20865
4.46191
4.65073
4.5067
4.12557
2.72328
0.313091
-0.0139858
0.0454696
-0.00160374
0.0147803
2.24025
3.35712
0.0944358
1.49055
0.679285
-0.00120245
-0.00133947
-0.00162442
-0.000203709
-8.9717e-05
-0.00039674
-0.000897165
2.16013e-05
0.000283461
-0.00129977
1.31051e-05
3.42793e-05
-0.00036115
-0.000271672
-0.00580188
0.00317289
0.000251336
0.000379594
0.00175119
0.003779
-0.00955442
-7.48839e-05
0.000838143
0.00365307
-3.31921e-05
-0.000199778
-0.000348067
-0.00036408
1.96285e-05
1.45233e-05
4.95393e-05
-6.14316e-06
-2.6691e-05
3.94414
4.49573
1.25526
2.85353
4.66153
4.6439
4.13006
4.61661
3.32401
2.03248
4.67961
4.59954
2.96412
4.62149
3.16351
0.175158
3.71652
0.635347
4.65053
4.63988
3.05812
1.90002
4.02483
4.52277
0.0697426
4.64417
4.47341
4.63806
4.20552
3.72245
2.81142
0.861194
-0.011799
-0.00437016
0.0143946
-0.00560483
-0.00259514
-0.000902943
-6.78751e-05
-0.000384929
-0.000684474
-0.00110556
0.00319219
-0.002492
0.00566082
0.00425525
0.00535502
0.00154687
0.00546468
-0.000934472
-0.000734908
-0.00163467
-0.000333334
-0.000157528
-0.000305565
0.000151329
-0.00108977
-0.00183034
-0.00676351
0.00278988
-0.00119622
-0.00315306
-0.000481235
-0.000207348
3.85071
3.20737
1.57598
2.56593
2.72834
1.70143
2.05229
2.35487
2.46979
4.58466
2.7128
3.04179
4.30532
4.5077
3.94621
3.47602
-0.302304
-0.0621229
-0.325734
1.73012
0.810524
0.26121
1.60901
2.45109
0.0411242
2.09055e-05
4.58249
-0.26643
-0.177515
-0.105365
-0.0220967
-0.0563101
4.36168
0.332988
1.51558
1.86788
1.854
3.39748
4.11356
2.68228
2.22861
2.00018
1.92914
4.52802
4.50174
4.74332
4.64756
4.62797
4.70226
4.61388
4.56484
4.38686
4.7171
4.7578
4.5577
4.41675
4.29805
4.60564
-0.0915443
0.170774
0.428208
-0.178588
0.388323
0.572367
0.0130507
-0.0063679
-0.00841381
-0.00671802
-0.00643041
-0.0126547
-0.00768409
0.00205913
-0.00107964
0.00909186
0.000134428
0.0144997
0.0078675
-0.000787514
0.00936298
0.00419204
-0.0332014
-0.0473926
-0.0216214
-0.017137
-0.029269
-0.0100444
-0.0250073
-0.0355446
-0.0193872
0.0201107
-0.0613016
-0.0991545
-0.0151851
0.0051176
0.0343445
0.0266084
-0.0100764
-0.0153124
-0.00290991
-0.000431422
-0.00204555
-0.0166151
-0.0136447
-0.00624018
0.000974841
0.00368289
0.00570644
0.000389473
0.00234509
0.00172091
0.00306766
0.00294369
-0.00537303
-0.0128206
-0.0170885
-0.0234243
-0.0122234
-0.00159991
-0.0260948
-0.0189313
-0.0270036
0.00104798
-0.0291528
0.0128274
-0.00277501
-0.0681907
-0.144606
-0.119831
0.00104278
0.00484165
-0.00374926
-0.00372878
-0.0248567
-0.00638252
0.031454
0.0612305
-0.00674652
-0.00194408
-0.00897164
0.000482414
0.219499
0.297737
-0.0408621
0.0371606
-0.14161
-0.143837
-0.000158751
0.0208827
-0.0203143
-0.00254462
-0.00693436
-0.00583877
-0.00483807
-0.00617386
-0.00292141
0.00269725
-0.00160868
0.00317556
0.00483793
0.00106372
-0.000436922
-0.000834921
1.94569e-05
-6.35308e-05
-0.000266158
-0.000329115
0.000827482
0.000754236
0.000106758
5.02638e-05
0.00336337
0.0023618
-0.00267145
-0.00144648
-2.2816e-05
9.55182e-05
-0.000248088
-0.000644186
0.00148188
0.000331075
3.6222e-05
1.31253e-05
0.000424037
0.00123522
4.8866e-05
0.000256808
0.000420473
0.000261025
0.000772432
0.00106358
0.00240664
0.00134916
0.0752457
0.159773
0.032201
0.0544361
0.0382461
-0.0169141
-0.00112243
0.221493
0.115367
-0.0727658
-0.00468117
0.398852
0.117815
0.0537308
0.00900607
-0.00500088
-0.00169666
-0.000490621
0.00258418
-0.00245739
-0.0115444
0.00909324
-0.00165815
9.04784e-05
-0.00161277
-0.0217519
-0.0324063
0.154461
0.121691
0.21032
0.131649
-0.00136122
-0.000109698
-5.62125e-05
-0.000264543
-2.64453e-05
4.69007e-06
4.19899e-06
-3.52866e-07
2.72788e-07
9.13861e-06
-6.24653e-05
0.000659017
0.00350509
-2.51414e-05
-3.00841e-05
-1.3524e-05
-5.26433e-06
-2.82942e-06
4.53087e-05
-0.000580608
-0.000212879
-0.000103887
1.68754e-06
1.19928e-06
7.04898e-06
8.57576e-06
-0.000337092
-0.000109989
-0.000722018
-0.00095028
8.48558e-06
2.57994e-06
2.62004e-05
4.40453
4.43268
-0.0124007
0.00370476
-0.00657106
0.628331
3.22101
4.30779
4.58665
4.56366
-0.00135272
0.0122875
0.545533
-0.0267668
3.02934
4.19037
3.85985
2.78465
4.61103
4.69684
4.42081
4.51083
-0.00339736
1.20008
4.77239
4.45856
4.47897
4.57005
3.63
1.41816
0.0529889
-0.0119823
-0.00772924
-0.00171812
-3.79081e-05
1.98313e-06
9.54559e-05
-0.000216148
-0.00293569
1.57148e-05
8.20681e-05
-8.20369e-05
-0.000152035
-0.000203965
-0.000510554
-0.000418931
-0.000328404
-0.000589165
2.96334e-05
-0.0109264
0.00221069
0.00171706
-0.000851623
-0.000440024
0.000428545
4.19337e-06
3.34055e-05
0.00500408
-0.00254247
-0.00560593
-0.00106178
-0.000233847
-0.000143367
8.9172e-05
0.000429012
0.000264617
0.0056169
0.0020314
-4.04932e-05
-0.000105429
0.000422695
0.00175128
-4.82548e-05
0.000100803
-5.29826e-05
-7.65131e-05
4.94895e-05
0.622118
0.300835
4.61252e-05
3.66265e-05
-4.88669e-05
0.055726
0.0278154
0.0715992
0.599106
0.255328
-0.00122282
0.0114744
-0.000146586
0.00116677
0.0434327
-0.000280463
-5.81181e-05
0.00185778
-0.000767783
4.50374e-05
-3.0906e-05
1.69221e-05
-2.50724e-05
5.24339e-06
-4.10307e-06
1.10733e-06
8.25856e-06
-1.43848e-05
2.25374e-07
-8.44043e-07
-3.04185e-06
2.90484e-06
-3.7111e-07
0.000129528
-9.02282e-05
0.000137104
8.34972e-05
-3.46131e-05
6.25835e-05
2.90196e-06
2.98315e-06
-3.08534e-08
-9.66831e-08
9.92184e-05
-0.000105806
-3.02885e-05
8.92873e-05
-3.05805e-05
-3.88529e-06
1.90998e-06
1.13242e-05
8.56259e-07
8.78279e-08
1.17858e-06
1.78749e-05
4.53432e-06
6.54145e-06
5.1651e-07
-1.00631e-06
1.45809e-06
-9.97828e-07
-1.7818e-06
9.9527e-07
1.6769e-05
3.31922e-06
3.17083e-07
7.23188e-08
5.77849e-07
-1.06098e-07
4.85686e-07
-5.47312e-06
-3.30259e-06
3.5462e-07
3.47563e-06
8.17728e-05
1.28626e-05
-2.29109e-07
1.88741e-05
4.38237e-05
1.86575e-05
-1.9099e-05
0.000323274
4.72057e-05
5.97914e-10
7.17317e-07
-9.50407e-08
1.18248e-09
-1.71441e-09
1.33742e-08
-1.31695e-08
8.4978e-08
-2.24853e-07
-5.79966e-08
1.04166e-07
5.71424e-09
1.55896e-09
-4.74812e-09
-9.39163e-09
4.71478e-08
-3.94678e-08
1.51369e-06
-6.9175e-07
-1.65968e-07
9.53954e-08
-1.51272e-06
1.19103e-07
-4.06979e-08
-3.45702e-07
1.67805e-06
-9.45374e-08
2.01035e-07
4.60875e-08
-1.3668e-08
-9.86461e-09
2.28065e-09
4.3481e-07
-5.4437e-07
-2.19897e-06
1.78003e-07
-5.49597e-08
-5.52346e-08
5.19851e-09
3.0766e-08
1.18605e-08
-1.06358e-08
-1.15791e-07
-1.94412e-08
6.53396e-09
1.1305e-09
5.43839e-09
-7.57651e-10
2.6064e-08
-1.15867e-07
-1.20116e-07
-1.50034e-07
4.33132e-08
-1.91997e-08
2.66359e-08
1.01552e-07
3.39229e-07
2.43282e-07
7.29516e-07
-1.21029e-06
-1.62893e-07
-4.13715e-07
3.81001e-07
-4.25324e-08
-6.62903e-10
-1.43984e-09
4.64744e-09
0
1.08827e-10
8.94744e-10
-1.3859e-09
0
0
1.31307e-10
0
0
1.6493e-07
0
-1.58333e-10
0
0
3.8758e-10
1.32784e-08
-5.21601e-08
4.41087e-08
-7.02357e-08
-8.62954e-09
-8.05132e-09
0
-4.39236e-09
-2.02582e-08
6.15271e-09
1.15541e-09
-1.27693e-10
2.11246e-10
-5.7156e-10
