# vtk DataFile Version 2.0
Unstructured Grid by M++
ASCII
DATASET UNSTRUCTURED_GRID
POINTS 1089 float
  0.968750   0.906250 0
  0.968750   0.937500 0
  1.000000   0.906250 0
  1.000000   0.937500 0
  1.000000   0.968750 0
  0.906250   0.906250 0
  0.906250   0.875000 0
  0.906250   0.812500 0
  0.906250   0.843750 0
  0.937500   0.906250 0
  0.937500   0.937500 0
  0.937500   0.843750 0
  0.937500   0.875000 0
  0.968750   0.875000 0
  0.968750   0.656250 0
  0.968750   0.687500 0
  1.000000   0.656250 0
  1.000000   0.625000 0
  1.000000   0.687500 0
  0.906250   0.656250 0
  0.906250   0.687500 0
  0.906250   0.625000 0
  0.906250   0.531250 0
  0.906250   0.562500 0
  0.906250   0.593750 0
  0.937500   0.656250 0
  0.937500   0.687500 0
  0.937500   0.531250 0
  0.937500   0.562500 0
  0.937500   0.593750 0
  0.937500   0.625000 0
  0.968750   0.625000 0
  0.968750   0.593750 0
  1.000000   0.593750 0
  0.968750   0.562500 0
  1.000000   0.562500 0
  1.000000   0.531250 0
  0.968750   0.531250 0
  0.781250   1.000000 0
  0.812500   0.781250 0
  0.812500   0.812500 0
  0.875000   0.843750 0
  0.875000   0.812500 0
  0.875000   0.875000 0
  0.781250   0.781250 0
  0.843750   0.843750 0
  0.843750   0.812500 0
  0.875000   0.781250 0
  0.843750   0.781250 0
  0.781250   0.750000 0
  0.781250   0.718750 0
  0.781250   0.687500 0
  0.812500   0.750000 0
  0.812500   0.718750 0
  0.812500   0.531250 0
  0.812500   0.687500 0
  0.812500   0.656250 0
  0.812500   0.562500 0
  0.812500   0.593750 0
  0.812500   0.625000 0
  0.875000   0.687500 0
  0.875000   0.656250 0
  0.875000   0.593750 0
  0.875000   0.562500 0
  0.875000   0.625000 0
  0.781250   0.531250 0
  0.781250   0.562500 0
  0.781250   0.625000 0
  0.781250   0.593750 0
  0.781250   0.656250 0
  0.843750   0.656250 0
  0.843750   0.593750 0
  0.843750   0.562500 0
  0.843750   0.625000 0
  0.843750   0.687500 0
  0.843750   0.750000 0
  0.875000   0.531250 0
  0.843750   0.531250 0
  0.656250   0.906250 0
  0.656250   0.937500 0
  0.656250   1.000000 0
  0.656250   0.968750 0
  0.687500   1.000000 0
  0.687500   0.968750 0
  0.687500   0.937500 0
  0.718750   0.937500 0
  0.718750   0.968750 0
  0.718750   1.000000 0
  0.656250   0.781250 0
  0.656250   0.812500 0
  0.656250   0.843750 0
  0.656250   0.875000 0
  0.750000   0.968750 0
  0.750000   1.000000 0
  0.750000   0.656250 0
  0.750000   0.625000 0
  0.687500   0.656250 0
  0.687500   0.687500 0
  0.687500   0.625000 0
  0.718750   0.656250 0
  0.718750   0.687500 0
  0.718750   0.718750 0
  0.656250   0.531250 0
  0.656250   0.562500 0
  0.656250   0.656250 0
  0.656250   0.687500 0
  0.656250   0.750000 0
  0.656250   0.718750 0
  0.656250   0.625000 0
  0.656250   0.593750 0
  0.750000   0.687500 0
  0.750000   0.718750 0
  0.750000   0.750000 0
  0.687500   0.531250 0
  0.687500   0.562500 0
  0.687500   0.593750 0
  0.718750   0.625000 0
  0.750000   0.531250 0
  0.718750   0.531250 0
  0.750000   0.562500 0
  0.718750   0.562500 0
  0.718750   0.593750 0
  0.750000   0.593750 0
  0.562500   1.000000 0
  0.562500   0.968750 0
  0.562500   0.937500 0
  0.562500   0.906250 0
  0.562500   0.812500 0
  0.562500   0.843750 0
  0.562500   0.875000 0
  0.625000   0.937500 0
  0.625000   0.906250 0
  0.562500   0.781250 0
  0.625000   0.875000 0
  0.531250   1.000000 0
  0.531250   0.968750 0
  0.531250   0.937500 0
  0.531250   0.812500 0
  0.531250   0.875000 0
  0.531250   0.843750 0
  0.531250   0.906250 0
  0.593750   0.906250 0
  0.593750   0.843750 0
  0.593750   0.875000 0
  0.593750   0.812500 0
  0.625000   0.843750 0
  0.625000   0.812500 0
  0.593750   0.937500 0
  0.625000   1.000000 0
  0.593750   1.000000 0
  0.593750   0.968750 0
  0.625000   0.968750 0
  0.625000   0.781250 0
  0.593750   0.781250 0
  0.562500   0.531250 0
  0.562500   0.750000 0
  0.562500   0.718750 0
  0.562500   0.687500 0
  0.562500   0.656250 0
  0.562500   0.562500 0
  0.562500   0.593750 0
  0.562500   0.625000 0
  0.625000   0.687500 0
  0.625000   0.656250 0
  0.625000   0.593750 0
  0.625000   0.562500 0
  0.625000   0.625000 0
  0.531250   0.531250 0
  0.531250   0.750000 0
  0.531250   0.718750 0
  0.531250   0.687500 0
  0.531250   0.562500 0
  0.531250   0.625000 0
  0.531250   0.593750 0
  0.531250   0.656250 0
  0.593750   0.656250 0
  0.593750   0.593750 0
  0.593750   0.562500 0
  0.593750   0.625000 0
  0.593750   0.687500 0
  0.625000   0.750000 0
  0.593750   0.750000 0
  0.593750   0.718750 0
  0.625000   0.718750 0
  0.625000   0.531250 0
  0.593750   0.531250 0
  0.968750   0.406250 0
  0.968750   0.437500 0
  0.968750   0.468750 0
  0.968750   0.500000 0
  1.000000   0.406250 0
  1.000000   0.375000 0
  1.000000   0.437500 0
  1.000000   0.468750 0
  1.000000   0.500000 0
  0.906250   0.500000 0
  0.906250   0.406250 0
  0.906250   0.437500 0
  0.906250   0.281250 0
  0.906250   0.312500 0
  0.906250   0.343750 0
  0.906250   0.375000 0
  0.937500   0.406250 0
  0.937500   0.500000 0
  0.937500   0.468750 0
  0.937500   0.437500 0
  0.937500   0.281250 0
  0.937500   0.312500 0
  0.937500   0.343750 0
  0.937500   0.375000 0
  0.968750   0.375000 0
  1.000000   0.281250 0
  0.968750   0.281250 0
  1.000000   0.312500 0
  0.968750   0.312500 0
  0.968750   0.343750 0
  1.000000   0.343750 0
  0.968750   0.125000 0
  0.968750   0.156250 0
  0.968750   0.187500 0
  1.000000   0.000000 0
  1.000000   0.156250 0
  1.000000   0.125000 0
  1.000000   0.187500 0
  1.000000   0.218750 0
  0.531250   0.781250 0
  1.000000   0.250000 0
  0.906250   0.250000 0
  0.906250   0.218750 0
  0.937500   0.250000 0
  0.937500   0.218750 0
  0.968750   0.250000 0
  0.906250   0.031250 0
  0.906250   0.000000 0
  0.906250   0.062500 0
  0.906250   0.093750 0
  0.906250   0.125000 0
  0.937500   0.156250 0
  0.937500   0.031250 0
  0.937500   0.000000 0
  0.937500   0.062500 0
  0.937500   0.093750 0
  0.937500   0.125000 0
  1.000000   0.031250 0
  0.968750   0.031250 0
  0.968750   0.000000 0
  1.000000   0.062500 0
  0.968750   0.062500 0
  0.968750   0.093750 0
  1.000000   0.093750 0
  0.781250   0.312500 0
  0.781250   0.343750 0
  0.812500   0.500000 0
  0.812500   0.468750 0
  0.812500   0.437500 0
  0.812500   0.281250 0
  0.812500   0.312500 0
  0.812500   0.343750 0
  0.812500   0.375000 0
  0.875000   0.281250 0
  0.875000   0.406250 0
  0.875000   0.343750 0
  0.875000   0.312500 0
  0.875000   0.375000 0
  0.843750   0.281250 0
  0.843750   0.312500 0
  0.843750   0.375000 0
  0.843750   0.343750 0
  0.781250   0.500000 0
  0.781250   0.468750 0
  0.781250   0.437500 0
  0.781250   0.406250 0
  0.875000   0.500000 0
  0.843750   0.500000 0
  0.843750   0.468750 0
  0.875000   0.468750 0
  0.781250   0.281250 0
  0.843750   0.218750 0
  0.843750   0.250000 0
  0.843750   0.187500 0
  0.843750   0.156250 0
  0.875000   0.218750 0
  0.875000   0.250000 0
  0.875000   0.187500 0
  0.812500   0.062500 0
  0.812500   0.250000 0
  0.812500   0.218750 0
  0.812500   0.187500 0
  0.812500   0.156250 0
  0.812500   0.125000 0
  0.843750   0.093750 0
  0.843750   0.062500 0
  0.875000   0.125000 0
  0.875000   0.093750 0
  0.875000   0.062500 0
  0.781250   0.250000 0
  0.781250   0.218750 0
  0.781250   0.187500 0
  0.093750   0.937500 0
  0.125000   1.000000 0
  0.937500   0.718750 0
  0.250000   0.000000 0
  0.093750   0.968750 0
  0.125000   0.968750 0
  0.000000   0.718750 0
  0.000000   0.750000 0
  0.125000   0.531250 0
  0.125000   0.562500 0
  0.093750   0.531250 0
  0.031250   0.750000 0
  0.125000   0.468750 0
  0.156250   0.468750 0
  0.500000   0.375000 0
  0.156250   0.500000 0
  0.406250   0.406250 0
  0.406250   0.437500 0
  0.406250   0.500000 0
  0.406250   0.468750 0
  0.406250   0.375000 0
  0.750000   0.312500 0
  0.437500   0.406250 0
  0.437500   0.500000 0
  0.437500   0.468750 0
  0.437500   0.437500 0
  0.468750   0.437500 0
  0.468750   0.468750 0
  0.406250   0.281250 0
  0.406250   0.312500 0
  0.062500   0.375000 0
  0.406250   0.343750 0
  0.062500   0.406250 0
  0.500000   0.468750 0
  0.500000   0.500000 0
  0.437500   0.281250 0
  0.437500   0.312500 0
  0.437500   0.343750 0
  0.093750   0.406250 0
  0.437500   0.375000 0
  0.093750   0.437500 0
  0.468750   0.375000 0
  0.125000   0.437500 0
  0.500000   0.281250 0
  0.468750   0.281250 0
  0.500000   0.312500 0
  0.468750   0.312500 0
  0.468750   0.343750 0
  0.500000   0.343750 0
  0.843750   0.906250 0
  0.156250   0.187500 0
  0.468750   0.187500 0
  0.468750   0.218750 0
  0.468750   0.250000 0
  0.406250   0.031250 0
  0.750000   0.812500 0
  0.062500   0.093750 0
  0.406250   0.000000 0
  0.750000   0.781250 0
  0.062500   0.062500 0
  0.500000   0.187500 0
  0.500000   0.218750 0
  0.500000   0.250000 0
  0.437500   0.031250 0
  0.781250   0.812500 0
  0.093750   0.093750 0
  0.437500   0.000000 0
  0.437500   0.062500 0
  0.781250   0.843750 0
  0.093750   0.125000 0
  0.406250   0.187500 0
  0.406250   0.250000 0
  0.406250   0.218750 0
  0.437500   0.250000 0
  0.437500   0.218750 0
  0.437500   0.187500 0
  0.500000   0.000000 0
  0.500000   0.031250 0
  0.468750   0.031250 0
  0.468750   0.000000 0
  0.500000   0.062500 0
  0.468750   0.062500 0
  0.812500   0.843750 0
  0.125000   0.125000 0
  0.812500   0.875000 0
  0.125000   0.156250 0
  0.500000   0.093750 0
  0.843750   0.875000 0
  0.156250   0.156250 0
  1.000000   1.000000 0
  0.312500   0.281250 0
  0.656250   0.218750 0
  0.437500   0.156250 0
  0.312500   0.500000 0
  0.437500   0.125000 0
  0.312500   0.468750 0
  0.437500   0.093750 0
  0.781250   0.031250 0
  0.312500   0.437500 0
  0.312500   0.406250 0
  0.312500   0.312500 0
  0.312500   0.343750 0
  0.312500   0.375000 0
  0.375000   0.437500 0
  0.375000   0.406250 0
  0.375000   0.343750 0
  0.718750   0.281250 0
  0.375000   0.375000 0
  0.968750   1.000000 0
  0.281250   0.281250 0
  0.406250   0.156250 0
  0.281250   0.500000 0
  0.406250   0.125000 0
  0.281250   0.468750 0
[...]
CELL_DATA 1024
SCALARS scalar_value float 1
LOOKUP_TABLE default
0.0327513
0.179
0.0379514
0.0558086
0.0677615
0.0841262
0.010446
0.0241548
0.0998824
0.0390283
0.0215308
0.0430745
0.0492103
0.0051372
-0.00985978
-0.0352135
0.0169359
0.0493263
0.0118519
-0.00367508
-0.00239557
0.0128423
0.00529275
-0.0124431
0.00631139
0.00444287
0.0469385
0.0732185
0.0603453
0.0811668
0.0336765
-0.0128012
0.0185527
-0.0173456
0.00217788
0.000231723
0.0131339
0.00543523
0.00804799
-0.0193631
0.00157255
3.65208e-05
0.0203707
0.013837
-0.038008
0.0391312
0.0337967
0.0559883
0.0413589
-0.0201661
0.0832721
0.0927058
0.0493188
0.000117885
0.0129334
0.00164247
0.0116322
0.0059707
0.0291915
0.000884931
0.0242137
0.0147518
0.00490931
5.62318e-05
-0.00226415
0.0401559
8.9862e-05
0.000109672
0.212559
0.492458
-0.00229195
0.0016664
0.000500583
8.19341e-05
0.754513
0.104872
0.14378
0.166072
0.0939486
0.00449403
-0.0951981
-0.000749534
0.000936999
0.0215887
-0.0259944
-0.0421679
-0.0336209
0.073488
-4.94055e-05
0.000223885
-0.00865026
-0.00787647
0.229451
-0.0910834
-0.0217993
0.135583
-0.0888188
-0.00248889
0.0520385
-0.0429746
0.0282607
-0.0529957
-0.0348561
0.103148
-0.0344428
-0.0512362
-0.0613242
0.0595384
-0.0316218
-0.0324721
-0.149466
0.000473295
-0.000147062
0.0474312
-0.0467732
0.0446148
0.0854823
0.0822164
0.0236275
0.0196093
-0.0104568
0.012015
0.0268207
-0.0142529
0.00420332
-0.0609703
-0.0334046
0.012433
0.0555676
0.0187467
0.0109965
3.09584
3.67756
2.94283
3.19686
2.73524
1.53891
0.00592159
-0.0145195
0.865936
1.02303
2.45159
1.97629
1.35938
0.268619
-0.000342608
-5.70774e-05
0.412552
-0.046789
0.00735941
1.14254
0.0343417
-0.0014418
-1.33081e-05
0.00249745
0.0128626
1.20115
1.44736
0.01794
-0.11568
2.16693
4.64768
4.36273
4.44661
4.5626
4.06496
3.71823
4.3415
4.65245
4.05109
4.5937
4.64871
4.41745
4.4697
4.22353
4.49634
-0.0586217
0.0960531
0.507696
0.806506
0.0686559
-0.113177
2.21823
0.211053
0.904331
0.0928613
3.05021
2.92224
2.25106
2.76423
4.07808
4.64527
1.81577
0.0647987
0.680238
0.0274637
0.147347
-0.022394
0.00632829
2.70449
3.13018
3.29616
2.9514
1.52812
0.000659342
0.123881
0.191805
-0.0212875
-0.0541307
1.42249
0.288872
1.55701
3.09788
-0.0031635
3.88994
3.53988
4.48624
4.28008
2.89188
3.55826
4.34859
4.48344
3.83746
4.11492
-0.00127641
-0.0172566
0.149176
-0.031673
-0.0161711
-0.0397922
-0.0463016
-0.0349239
-0.0109099
-0.0883746
-0.0620695
-0.0246169
-0.034333
0.0224309
2.985
4.46969
4.57601
-0.0787578
0.336863
1.24975
3.7195
0.0345683
0.162729
1.8427
3.01996
2.34175
3.02297
2.1911
0.113584
0.286961
0.264605
0.325324
-0.00110689
-0.00113488
4.45405e-06
-3.48149e-06
-2.88343e-05
-0.000342078
-1.09492e-05
-3.50356e-05
9.60567e-07
-3.46326e-07
8.73499e-08
-1.02807e-06
-0.000596342
-0.000258781
-7.58318e-08
7.14731e-07
-1.65372e-06
-4.40591e-05
-5.39473e-05
-0.000145617
1.45748e-06
-3.66085e-06
1.08341e-07
-5.66501e-06
-5.23909e-07
3.17441e-08
1.65637e-08
7.35727e-08
3.02267e-08
-3.13462e-09
7.43104e-09
-5.18049e-08
-4.95867e-10
2.94643e-09
1.07941e-10
0
-3.86293e-07
-1.60275e-06
-1.66435e-08
3.2394e-08
3.56793e-08
2.62972e-07
-2.98336e-07
-1.34562e-07
6.5964e-08
3.05317e-07
8.21034e-09
3.47201e-08
-2.15453e-08
-1.32987e-08
1.54645e-07
-3.28463e-08
1.89267e-08
1.66658e-08
-7.44084e-09
-5.69864e-08
2.92898e-08
-1.53675e-09
3.34208e-10
-4.56529e-09
9.93258e-09
2.22682e-10
-8.48953e-09
-9.7862e-09
-0.0582454
-0.00804871
0.0221826
-0.0356671
-0.000501535
-5.13074e-05
5.27148e-05
-0.000491329
3.58169
2.51607
2.11538
0.586708
0.00158753
0.127869
0.00485836
-0.00335071
8.71302e-06
-0.0145254
-0.00745883
-0.0113774
-0.000824066
6.42022e-05
1.16272e-05
-7.1595e-05
-0.000161195
-0.00218494
-0.000138794
-0.00426925
-0.00116584
-1.34074e-05
-1.55064e-05
-1.73953e-05
-0.000185245
-0.000161444
-0.00179603
-1.82503e-05
-1.64599e-05
-2.62897e-05
3.87107e-06
-5.48742e-06
-1.96568e-06
-1.39082e-06
-8.82692e-05
-8.16813e-06
9.85817e-06
-9.09892e-06
-4.97916e-06
6.84886e-07
5.65082e-06
-3.30909e-05
-1.31514e-05
6.68551e-06
6.61214e-07
-8.856e-07
-3.2857e-06
1.57453e-06
4.30262e-06
-2.02589e-06
-5.63527e-06
4.17803e-06
9.13098e-08
-3.67873e-07
-1.17963e-06
4.2303e-07
4.47863
4.63189
3.22656
0.280049
4.58505
4.66575
4.2622
3.35255
0.426037
4.68733
4.63748
4.6279
4.60542
4.67561
4.63543
3.9524
4.22429
4.64618
4.3958
4.5414
3.79681
1.95028
0.0398639
0.0294943
0.00272713
0.0207253
3.48423
4.1062
0.305036
2.30298
1.25293
0.00483798
-0.000667795
-0.000892404
-8.37842e-05
-2.00754e-05
-9.64643e-05
0.000150975
-0.000159141
-0.000981043
9.27253e-05
-0.000515541
-0.000137051
-0.000707314
-0.000215094
0.0091016
-0.00207063
-0.00155925
-0.00358122
-0.00319305
0.00100213
0.0147995
-0.000968008
-0.00190107
-0.00342708
-7.76724e-05
-7.50918e-05
-0.000308204
-5.49222e-06
-1.69213e-05
-1.55885e-05
-0.000354748
-6.61022e-05
-2.59081e-05
3.77297
4.44332
0.885473
2.56646
4.62808
4.66677
4.0262
4.51847
3.08652
1.67848
4.63601
4.67647
3.7944
4.64782
3.99274
0.836773
4.26735
1.69578
4.65945
4.6356
2.68615
1.36954
3.82079
4.45685
0.50765
4.6455
4.32788
4.61016
4.53581
3.42396
2.25669
1.84125
-0.00296751
-0.000126405
-0.0227895
-0.0113744
0.000277727
0.000380146
8.97734e-05
0.000174402
-0.000192546
-0.00106556
-0.00785885
-0.00268752
-0.00059227
0.00469413
-0.00629376
-0.00112067
0.00936484
0.0148079
-5.41741e-05
-0.000696925
0.00011109
1.08282e-05
-0.000256516
-0.000227835
0.000363682
0.000376979
-0.00276493
-0.0105399
0.000850926
0.00196291
0.000192927
3.33101e-05
2.94221
2.13537
2.54315
3.35945
3.48831
2.78633
3.12981
3.32334
3.32839
4.36967
1.57907
1.93783
3.69721
4.1367
3.07656
2.43243
-0.232995
-0.0660309
-0.187375
2.6012
0.0974441
-0.0118491
0.52296
1.27281
-0.0048219
-0.000608262
4.46755
-0.098426
-0.038777
-0.0151708
-0.000761058
-0.00570632
4.38358
0.0142685
0.982816
3.02642
2.79007
3.96021
4.45072
3.67982
3.55569
3.45661
3.31484
4.48765
4.42477
4.64579
4.67491
4.52409
4.60163
4.38909
4.34411
4.30007
4.55431
4.44717
4.46443
4.31852
3.58448
4.09869
0.00708333
0.225824
0.432431
-0.171312
0.328945
0.528649
-0.00738561
-0.0126809
-0.0199401
0.0020172
-0.00479651
-0.0293728
-0.026507
-0.000813367
0.0285382
0.00156632
0.00416127
-0.00482653
0.00699293
0.00114205
0.0138383
0.0106155
-0.0744546
-0.0648369
-0.0648452
-0.0553561
-0.0961247
-0.0738667
-0.0529462
-0.0703955
-0.186122
-0.169537
-0.183384
-0.172182
-0.0685528
-0.0469435
-0.131653
-0.0836754
0.0229787
0.00603395
0.00238825
0.00475333
0.0019875
-0.00168866
-0.00314063
-0.00167588
0.0026511
0.00345277
-0.000377607
0.00290761
0.00169519
0.00330099
-0.00101055
-0.00152423
0.00695958
0.0359775
0.0171354
-0.00337251
0.0235246
0.0343405
-0.00766564
0.00172328
0.470716
0.109465
0.188133
-0.0227629
-0.0923057
0.192111
0.271697
0.196383
0.0197333
0.0634077
-0.0134352
-0.00801385
0.0271628
-0.00655273
-0.093928
-0.141118
-0.0225462
-0.0112533
-0.0164696
-0.0439897
0.200407
0.0791913
0.16392
0.462781
-0.00720318
0.0251397
-0.0183499
-0.0661384
-0.211256
-0.00283722
-0.00602604
-0.000893827
-0.000343059
0.000555493
0.00228182
0.00640167
0.00233243
0.00726869
0.00872966
-0.0029426
-0.000787182
-0.00237146
-7.9289e-05
-0.000163727
-0.000408587
-0.000681727
-0.00226575
-0.00772953
-0.000147885
6.62464e-06
0.00160712
0.00181937
-0.00347262
-0.00108731
-0.000547709
-0.000439501
-0.000453741
-0.000313546
0.000774752
-0.000505675
1.38592e-05
6.37661e-05
-0.000434223
4.21561e-05
-0.000694745
-0.000117593
-0.000511281
-0.000830254
-0.000416717
-0.000699095
0.000890146
-7.48821e-05
0.0384624
0.0561005
0.00371437
0.058659
0.08668
0.184771
0.0233278
-0.0763148
0.294
-0.00102856
-0.0410681
0.0842846
0.102883
0.386057
0.0177259
-0.0152186
-0.00474154
0.0411997
0.021867
-0.0372927
-0.0843191
-0.00701205
-0.00901262
0.00149105
-0.00352316
0.0609157
0.143553
0.222027
0.166529
0.00378211
-0.0554943
-0.00685655
-0.000171508
3.81078e-05
0.000658479
-0.000568279
-7.7328e-06
-1.74983e-05
1.97962e-06
6.98158e-06
0.000146154
0.000228206
-0.000111685
-0.000650261
-2.53586e-05
3.0751e-05
-5.51566e-07
3.28483e-06
9.09415e-06
-0.00106171
0.000294698
-0.000327314
0.000203829
-4.47781e-06
6.61973e-07
-9.68347e-08
-2.67507e-05
-0.000238116
2.5635e-05
-0.00083881
-0.00180264
-5.43583e-05
-8.32178e-05
-0.000119804
4.70231
4.62528
0.00688252
-0.000672085
0.0821985
2.24847
4.18118
4.5322
4.62794
4.63833
0.0327803
-0.0129957
2.22973
0.0963443
3.99263
4.54568
3.57266
2.35434
4.64814
4.6178
4.37955
4.66512
-0.0363165
2.26577
4.5411
4.38088
4.49332
4.79447
4.20248
2.30835
0.240145
-0.0177243
0.00632649
-0.000947544
9.88635e-05
-3.94404e-05
-6.92861e-05
0.000280744
0.015995
-4.85556e-05
-8.9205e-05
5.08374e-05
7.78158e-05
-7.9004e-05
0.00018857
-0.00178039
-0.00123768
0.00237951
0.000113826
-0.0065896
-0.0134915
-0.000661325
0.00174712
0.00445696
-0.000301145
-0.00016648
-0.000105479
-0.0127049
-0.000569565
-0.000801733
0.000791831
0.000360041
-1.29528e-05
3.56929e-05
-0.00137863
-0.00161148
-0.00188901
-0.00134641
0.000193337
8.55552e-05
1.33584e-05
-0.000663138
8.03156e-05
-0.000134024
0.000151259
3.23282e-05
-0.000112433
1.18931
0.834975
-4.85189e-05
-1.72451e-05
7.57684e-05
0.000152249
0.0128323
0.0289076
1.1542
0.67717
-0.00376339
0.123172
-0.000869189
-0.00152736
0.0558743
-0.00017175
1.92541e-05
0.0198449
-8.9294e-05
-2.39743e-05
1.76911e-05
5.62556e-05
-5.30055e-06
-9.33277e-07
4.69616e-06
6.27317e-07
-4.34406e-06
1.18366e-05
3.25355e-07
1.45262e-07
2.8923e-06
-1.50196e-06
1.35707e-07
-6.0231e-05
0.000130783
3.42038e-05
-0.000290852
7.0412e-05
-3.10251e-05
-3.64424e-05
8.29173e-06
-2.02259e-07
3.13479e-08
-2.1088e-05
-4.313e-05
5.35922e-06
-4.54562e-05
2.31245e-05
8.58677e-06
-1.83659e-06
-1.95554e-05
1.10836e-06
1.43228e-06
-2.0726e-06
-1.77668e-05
-6.75337e-06
3.36867e-05
-2.19827e-06
5.86739e-07
2.47625e-06
5.33379e-06
-3.32197e-06
-1.50944e-05
1.13987e-05
-2.04702e-06
-9.45858e-08
1.69841e-06
1.67094e-07
1.37328e-06
-1.65709e-06
8.79289e-06
1.12871e-05
2.84039e-06
-1.71936e-06
9.12695e-06
1.34294e-05
5.8104e-07
-1.78317e-05
-6.64247e-05
1.00985e-05
2.82102e-05
9.76772e-07
8.89944e-05
6.77897e-09
-2.12992e-06
2.73656e-06
9.21287e-09
2.46787e-08
-6.75305e-08
3.66948e-09
1.58648e-07
-9.31314e-08
1.13829e-07
-9.34761e-08
-4.18264e-09
-1.48569e-09
-2.78101e-08
1.76956e-08
-1.34427e-08
2.38512e-08
1.22318e-06
3.29945e-06
2.17269e-07
2.19617e-08
2.19408e-06
-1.45766e-07
1.66585e-08
7.46033e-07
-9.56221e-07
1.11248e-07
-1.95882e-07
-3.46038e-08
3.13959e-09
1.13395e-08
-1.67651e-09
7.57742e-07
-2.77704e-07
-2.11493e-07
-6.33113e-07
-3.70668e-07
2.32899e-08
2.30605e-07
1.36219e-08
-4.8061e-08
-5.17215e-09
-4.49228e-08
-3.97921e-08
5.59822e-09
1.52235e-08
-6.67752e-09
-3.22897e-09
-1.65578e-06
-1.73792e-07
1.00491e-07
-1.56003e-07
-5.47421e-08
-1.94157e-08
7.90488e-08
1.45156e-07
-1.45462e-06
-7.84188e-08
9.05811e-07
1.21923e-05
6.89739e-07
3.67728e-07
2.26815e-08
-1.62683e-07
1.07853e-09
7.30148e-09
-8.96601e-09
-6.90742e-10
-1.67381e-10
1.138e-10
2.65349e-09
-4.4428e-10
1.23157e-09
-8.32773e-10
0
0
-2.36473e-07
-1.35989e-10
3.45353e-10
0
0
-2.70181e-08
-1.5914e-08
3.20822e-07
-4.14223e-08
-1.50882e-07
2.51507e-09
2.18608e-08
1.39185e-09
5.71463e-09
4.10224e-08
-1.03525e-08
-1.45108e-09
5.47962e-10
1.5321e-09
-4.28254e-10
