# vtk DataFile Version 2.0
Unstructured Grid by M++
ASCII
DATASET UNSTRUCTURED_GRID
POINTS 1089 float
  0.968750   0.906250 0
  0.968750   0.937500 0
  1.000000   0.906250 0
  1.000000   0.937500 0
  1.000000   0.968750 0
  0.906250   0.906250 0
  0.906250   0.875000 0
  0.906250   0.812500 0
  0.906250   0.843750 0
  0.937500   0.906250 0
  0.937500   0.937500 0
  0.937500   0.843750 0
  0.937500   0.875000 0
  0.968750   0.875000 0
  0.968750   0.656250 0
  0.968750   0.687500 0
  1.000000   0.656250 0
  1.000000   0.625000 0
  1.000000   0.687500 0
  0.906250   0.656250 0
  0.906250   0.687500 0
  0.906250   0.625000 0
  0.906250   0.531250 0
  0.906250   0.562500 0
  0.906250   0.593750 0
  0.937500   0.656250 0
  0.937500   0.687500 0
  0.937500   0.531250 0
  0.937500   0.562500 0
  0.937500   0.593750 0
  0.937500   0.625000 0
  0.968750   0.625000 0
  0.968750   0.593750 0
  1.000000   0.593750 0
  0.968750   0.562500 0
  1.000000   0.562500 0
  1.000000   0.531250 0
  0.968750   0.531250 0
  0.781250   1.000000 0
  0.812500   0.781250 0
  0.812500   0.812500 0
  0.875000   0.843750 0
  0.875000   0.812500 0
  0.875000   0.875000 0
  0.781250   0.781250 0
  0.843750   0.843750 0
  0.843750   0.812500 0
  0.875000   0.781250 0
  0.843750   0.781250 0
  0.781250   0.750000 0
  0.781250   0.718750 0
  0.781250   0.687500 0
  0.812500   0.750000 0
  0.812500   0.718750 0
  0.812500   0.531250 0
  0.812500   0.687500 0
  0.812500   0.656250 0
  0.812500   0.562500 0
  0.812500   0.593750 0
  0.812500   0.625000 0
  0.875000   0.687500 0
  0.875000   0.656250 0
  0.875000   0.593750 0
  0.875000   0.562500 0
  0.875000   0.625000 0
  0.781250   0.531250 0
  0.781250   0.562500 0
  0.781250   0.625000 0
  0.781250   0.593750 0
  0.781250   0.656250 0
  0.843750   0.656250 0
  0.843750   0.593750 0
  0.843750   0.562500 0
  0.843750   0.625000 0
  0.843750   0.687500 0
  0.843750   0.750000 0
  0.875000   0.531250 0
  0.843750   0.531250 0
  0.656250   0.906250 0
  0.656250   0.937500 0
  0.656250   1.000000 0
  0.656250   0.968750 0
  0.687500   1.000000 0
  0.687500   0.968750 0
  0.687500   0.937500 0
  0.718750   0.937500 0
  0.718750   0.968750 0
  0.718750   1.000000 0
  0.656250   0.781250 0
  0.656250   0.812500 0
  0.656250   0.843750 0
  0.656250   0.875000 0
  0.750000   0.968750 0
  0.750000   1.000000 0
  0.750000   0.656250 0
  0.750000   0.625000 0
  0.687500   0.656250 0
  0.687500   0.687500 0
  0.687500   0.625000 0
  0.718750   0.656250 0
  0.718750   0.687500 0
  0.718750   0.718750 0
  0.656250   0.531250 0
  0.656250   0.562500 0
  0.656250   0.656250 0
  0.656250   0.687500 0
  0.656250   0.750000 0
  0.656250   0.718750 0
  0.656250   0.625000 0
  0.656250   0.593750 0
  0.750000   0.687500 0
  0.750000   0.718750 0
  0.750000   0.750000 0
  0.687500   0.531250 0
  0.687500   0.562500 0
  0.687500   0.593750 0
  0.718750   0.625000 0
  0.750000   0.531250 0
  0.718750   0.531250 0
  0.750000   0.562500 0
  0.718750   0.562500 0
  0.718750   0.593750 0
  0.750000   0.593750 0
  0.562500   1.000000 0
  0.562500   0.968750 0
  0.562500   0.937500 0
  0.562500   0.906250 0
  0.562500   0.812500 0
  0.562500   0.843750 0
  0.562500   0.875000 0
  0.625000   0.937500 0
  0.625000   0.906250 0
  0.562500   0.781250 0
  0.625000   0.875000 0
  0.531250   1.000000 0
  0.531250   0.968750 0
  0.531250   0.937500 0
  0.531250   0.812500 0
  0.531250   0.875000 0
  0.531250   0.843750 0
  0.531250   0.906250 0
  0.593750   0.906250 0
  0.593750   0.843750 0
  0.593750   0.875000 0
  0.593750   0.812500 0
  0.625000   0.843750 0
  0.625000   0.812500 0
  0.593750   0.937500 0
  0.625000   1.000000 0
  0.593750   1.000000 0
  0.593750   0.968750 0
  0.625000   0.968750 0
  0.625000   0.781250 0
  0.593750   0.781250 0
  0.562500   0.531250 0
  0.562500   0.750000 0
  0.562500   0.718750 0
  0.562500   0.687500 0
  0.562500   0.656250 0
  0.562500   0.562500 0
  0.562500   0.593750 0
  0.562500   0.625000 0
  0.625000   0.687500 0
  0.625000   0.656250 0
  0.625000   0.593750 0
  0.625000   0.562500 0
  0.625000   0.625000 0
  0.531250   0.531250 0
  0.531250   0.750000 0
  0.531250   0.718750 0
  0.531250   0.687500 0
  0.531250   0.562500 0
  0.531250   0.625000 0
  0.531250   0.593750 0
  0.531250   0.656250 0
  0.593750   0.656250 0
  0.593750   0.593750 0
  0.593750   0.562500 0
  0.593750   0.625000 0
  0.593750   0.687500 0
  0.625000   0.750000 0
  0.593750   0.750000 0
  0.593750   0.718750 0
  0.625000   0.718750 0
  0.625000   0.531250 0
  0.593750   0.531250 0
  0.968750   0.406250 0
  0.968750   0.437500 0
  0.968750   0.468750 0
  0.968750   0.500000 0
  1.000000   0.406250 0
  1.000000   0.375000 0
  1.000000   0.437500 0
  1.000000   0.468750 0
  1.000000   0.500000 0
  0.906250   0.500000 0
  0.906250   0.406250 0
  0.906250   0.437500 0
  0.906250   0.281250 0
  0.906250   0.312500 0
  0.906250   0.343750 0
  0.906250   0.375000 0
  0.937500   0.406250 0
  0.937500   0.500000 0
  0.937500   0.468750 0
  0.937500   0.437500 0
  0.937500   0.281250 0
  0.937500   0.312500 0
  0.937500   0.343750 0
  0.937500   0.375000 0
  0.968750   0.375000 0
  1.000000   0.281250 0
  0.968750   0.281250 0
  1.000000   0.312500 0
  0.968750   0.312500 0
  0.968750   0.343750 0
  1.000000   0.343750 0
  0.968750   0.125000 0
  0.968750   0.156250 0
  0.968750   0.187500 0
  1.000000   0.000000 0
  1.000000   0.156250 0
  1.000000   0.125000 0
  1.000000   0.187500 0
  1.000000   0.218750 0
  0.531250   0.781250 0
  1.000000   0.250000 0
  0.906250   0.250000 0
  0.906250   0.218750 0
  0.937500   0.250000 0
  0.937500   0.218750 0
  0.968750   0.250000 0
  0.906250   0.031250 0
  0.906250   0.000000 0
  0.906250   0.062500 0
  0.906250   0.093750 0
  0.906250   0.125000 0
  0.937500   0.156250 0
  0.937500   0.031250 0
  0.937500   0.000000 0
  0.937500   0.062500 0
  0.937500   0.093750 0
  0.937500   0.125000 0
  1.000000   0.031250 0
  0.968750   0.031250 0
  0.968750   0.000000 0
  1.000000   0.062500 0
  0.968750   0.062500 0
  0.968750   0.093750 0
  1.000000   0.093750 0
  0.781250   0.312500 0
  0.781250   0.343750 0
  0.812500   0.500000 0
  0.812500   0.468750 0
  0.812500   0.437500 0
  0.812500   0.281250 0
  0.812500   0.312500 0
  0.812500   0.343750 0
  0.812500   0.375000 0
  0.875000   0.281250 0
  0.875000   0.406250 0
  0.875000   0.343750 0
  0.875000   0.312500 0
  0.875000   0.375000 0
  0.843750   0.281250 0
  0.843750   0.312500 0
  0.843750   0.375000 0
  0.843750   0.343750 0
  0.781250   0.500000 0
  0.781250   0.468750 0
  0.781250   0.437500 0
  0.781250   0.406250 0
  0.875000   0.500000 0
  0.843750   0.500000 0
  0.843750   0.468750 0
  0.875000   0.468750 0
  0.781250   0.281250 0
  0.843750   0.218750 0
  0.843750   0.250000 0
  0.843750   0.187500 0
  0.843750   0.156250 0
  0.875000   0.218750 0
  0.875000   0.250000 0
  0.875000   0.187500 0
  0.812500   0.062500 0
  0.812500   0.250000 0
  0.812500   0.218750 0
  0.812500   0.187500 0
  0.812500   0.156250 0
  0.812500   0.125000 0
  0.843750   0.093750 0
  0.843750   0.062500 0
  0.875000   0.125000 0
  0.875000   0.093750 0
  0.875000   0.062500 0
  0.781250   0.250000 0
  0.781250   0.218750 0
  0.781250   0.187500 0
  0.093750   0.937500 0
  0.125000   1.000000 0
  0.937500   0.718750 0
  0.250000   0.000000 0
  0.093750   0.968750 0
  0.125000   0.968750 0
  0.000000   0.718750 0
  0.000000   0.750000 0
  0.125000   0.531250 0
  0.125000   0.562500 0
  0.093750   0.531250 0
  0.031250   0.750000 0
  0.125000   0.468750 0
  0.156250   0.468750 0
  0.500000   0.375000 0
  0.156250   0.500000 0
  0.406250   0.406250 0
  0.406250   0.437500 0
  0.406250   0.500000 0
  0.406250   0.468750 0
  0.406250   0.375000 0
  0.750000   0.312500 0
  0.437500   0.406250 0
  0.437500   0.500000 0
  0.437500   0.468750 0
  0.437500   0.437500 0
  0.468750   0.437500 0
  0.468750   0.468750 0
  0.406250   0.281250 0
  0.406250   0.312500 0
  0.062500   0.375000 0
  0.406250   0.343750 0
  0.062500   0.406250 0
  0.500000   0.468750 0
  0.500000   0.500000 0
  0.437500   0.281250 0
  0.437500   0.312500 0
  0.437500   0.343750 0
  0.093750   0.406250 0
  0.437500   0.375000 0
  0.093750   0.437500 0
  0.468750   0.375000 0
  0.125000   0.437500 0
  0.500000   0.281250 0
  0.468750   0.281250 0
  0.500000   0.312500 0
  0.468750   0.312500 0
  0.468750   0.343750 0
  0.500000   0.343750 0
  0.843750   0.906250 0
  0.156250   0.187500 0
  0.468750   0.187500 0
  0.468750   0.218750 0
  0.468750   0.250000 0
  0.406250   0.031250 0
  0.750000   0.812500 0
  0.062500   0.093750 0
  0.406250   0.000000 0
  0.750000   0.781250 0
  0.062500   0.062500 0
  0.500000   0.187500 0
  0.500000   0.218750 0
  0.500000   0.250000 0
  0.437500   0.031250 0
  0.781250   0.812500 0
  0.093750   0.093750 0
  0.437500   0.000000 0
  0.437500   0.062500 0
  0.781250   0.843750 0
  0.093750   0.125000 0
  0.406250   0.187500 0
  0.406250   0.250000 0
  0.406250   0.218750 0
  0.437500   0.250000 0
  0.437500   0.218750 0
  0.437500   0.187500 0
  0.500000   0.000000 0
  0.500000   0.031250 0
  0.468750   0.031250 0
  0.468750   0.000000 0
  0.500000   0.062500 0
  0.468750   0.062500 0
  0.812500   0.843750 0
  0.125000   0.125000 0
  0.812500   0.875000 0
  0.125000   0.156250 0
  0.500000   0.093750 0
  0.843750   0.875000 0
  0.156250   0.156250 0
  1.000000   1.000000 0
  0.312500   0.281250 0
  0.656250   0.218750 0
  0.437500   0.156250 0
  0.312500   0.500000 0
  0.437500   0.125000 0
  0.312500   0.468750 0
  0.437500   0.093750 0
  0.781250   0.031250 0
  0.312500   0.437500 0
  0.312500   0.406250 0
  0.312500   0.312500 0
  0.312500   0.343750 0
  0.312500   0.375000 0
  0.375000   0.437500 0
  0.375000   0.406250 0
  0.375000   0.343750 0
  0.718750   0.281250 0
  0.375000   0.375000 0
  0.968750   1.000000 0
  0.281250   0.281250 0
  0.406250   0.156250 0
  0.281250   0.500000 0
  0.406250   0.125000 0
  0.281250   0.468750 0
[...]
CELL_DATA 1024
SCALARS scalar_value float 1
LOOKUP_TABLE default
0.0146577
0.129335
-0.0151229
0.0840422
0.136564
0.0721606
0.0529469
0.0151276
0.0749718
0.0500009
-0.014649
0.0460901
0.0822858
0.0253835
-0.0061311
-0.0129266
0.0139337
0.0331736
-0.03672
0.0241112
-0.0152924
0.0176426
0.0088711
-0.00789113
-0.0200686
0.0129442
0.0581154
0.0620817
0.0692197
0.0771988
0.00876998
-0.0103401
0.0321723
0.0057522
0.000352032
-0.00130773
0.00931784
0.00291579
0.0171622
-0.00350326
-0.000519981
-0.00219419
0.0114776
0.0143481
0.0177668
0.073827
0.0317966
0.0603591
0.0229011
0.00425814
0.0655296
0.0927185
0.0457979
-0.000471511
0.0124592
0.000326886
0.00846366
0.00320943
0.0307642
0.000208965
0.0227943
0.0106597
0.00273217
-0.000156865
-0.0035616
0.0669669
4.78829e-06
0.00080816
0.293655
0.393704
-0.00207621
-0.00140614
0.0012408
-9.25681e-05
0.630358
0.225596
0.133629
0.150168
0.0494388
-0.000744108
-0.103547
-0.00354525
0.00264981
0.049558
-0.00884332
-0.0303089
-0.0264912
0.00717776
0.00134957
9.42131e-05
-0.0230036
0.0233918
0.229976
-0.128973
0.0267061
0.00945878
-0.0581008
-0.0183333
0.104444
0.0312892
0.0340194
-0.0480733
-0.0260219
0.0614887
-0.00234475
-0.0890127
-0.0912268
0.0404939
-0.0557116
-0.000260134
-0.0998025
0.000494224
0.00144668
0.0400206
-0.0373231
0.0145475
0.000231478
0.0777328
0.0400314
0.00677134
0.000330573
0.0066247
0.0175667
0.008049
0.00429543
-0.00556969
-0.0445339
0.00571505
0.0701683
0.331815
-0.0305037
2.49968
3.12635
2.36826
3.00681
2.87078
2.05218
0.0028808
-0.00341774
0.299691
0.493966
2.34122
1.19441
1.61711
0.468293
-0.000664093
4.22796e-05
0.635853
-0.0550938
0.010054
0.854073
-0.019857
0.00115597
-0.000314219
0.0916292
0.00195719
1.40096
0.904125
-0.154622
-0.00536677
1.33841
4.65132
4.15754
4.51743
4.59419
4.22167
3.91905
4.42124
4.61942
3.58257
4.61299
4.65136
4.25308
4.52647
3.84682
4.20988
0.0566039
0.0299367
0.0990032
0.317079
0.000506662
-0.191449
2.03936
0.0472562
0.450318
-0.0527623
2.12325
2.29445
1.40673
2.29922
3.92041
4.63487
2.73621
0.449764
1.60708
0.235941
0.431141
0.0309079
-0.0195044
3.34163
3.6939
3.78177
3.48457
1.91729
-0.0225881
0.294184
0.455443
0.0439824
-0.0622563
2.31231
0.959969
2.32402
3.19261
0.252073
3.88139
3.59708
4.4941
4.24384
3.31963
3.68098
4.42189
4.5668
3.93997
4.21602
-0.00396567
-0.0239826
0.271409
-0.0425354
-0.0252066
-0.0468969
-0.0557418
-0.0379447
-0.0123879
-0.101434
-0.0739345
-0.0365045
-0.0425839
0.0547427
3.33951
4.54665
4.6027
-0.0770267
0.408507
1.57785
4.00941
0.175197
0.324919
2.2667
3.33618
2.71818
3.34138
2.48329
0.21973
0.391311
0.450475
0.51814
-0.00150948
-0.00227283
1.58946e-06
4.44551e-06
-1.88205e-05
-0.000377404
-1.50307e-05
-7.97177e-05
-3.91319e-07
-4.46648e-08
-1.02505e-07
-1.33006e-06
-0.00124365
-0.000359651
8.42406e-07
7.81465e-07
-3.32744e-06
-5.29329e-05
-7.18452e-05
-0.000315208
-4.59905e-06
-3.1195e-06
-9.83636e-07
-8.05047e-06
5.9848e-08
-6.41977e-08
4.5999e-08
5.02151e-09
-2.72663e-09
2.7066e-08
-6.76733e-08
-6.56899e-10
-1.82249e-10
1.78464e-09
3.22326e-10
0
-2.29326e-07
1.33889e-07
-1.36997e-07
4.17616e-08
2.09313e-07
6.66048e-08
2.22123e-07
-5.73345e-07
3.86554e-07
2.15491e-07
-2.65239e-09
-1.31598e-08
1.01767e-08
3.71642e-08
-3.50277e-08
6.6117e-09
-3.07585e-08
8.85862e-10
-2.22319e-09
5.81114e-10
2.6623e-08
-6.23873e-10
1.91307e-09
-3.0778e-09
1.77595e-09
-8.49482e-10
-1.29046e-08
5.80623e-09
-0.0608249
-0.00787036
0.0428246
-0.035943
-0.000167304
0.000144606
-0.000450343
-0.000456044
3.48232
1.86104
1.94368
0.371024
-0.0107985
0.0176117
0.00609608
-0.000373158
1.25467e-05
-0.0155708
0.0045645
-0.011374
-0.00100555
9.37424e-05
-6.0307e-05
-0.000119279
-5.9403e-05
-0.00232997
-0.000132193
-0.00544358
-0.000677477
7.8952e-07
-6.05798e-06
-1.53071e-05
-7.17958e-05
-0.000123327
-0.00125561
-2.6534e-05
-1.27636e-05
-1.37129e-06
1.41806e-05
-5.33671e-06
-1.0991e-06
-4.65553e-06
-8.86897e-05
-3.17966e-05
-8.14409e-06
-2.93662e-05
-8.39855e-06
4.26819e-06
5.58486e-06
7.90955e-06
-1.70435e-06
1.3568e-06
-2.0932e-06
7.17423e-07
-3.75673e-06
2.61381e-06
1.39861e-06
-3.29118e-06
-1.91607e-07
-4.90561e-06
1.09601e-08
2.24733e-07
4.48155e-07
-4.4566e-07
4.38422
4.6169
2.83662
0.102925
4.54066
4.67134
4.15253
3.00741
0.219475
4.69824
4.58848
4.64286
4.60232
4.66473
4.62983
4.04201
4.31691
4.64988
4.43386
4.43624
3.52998
1.3588
-0.057436
0.0440718
-0.00126906
0.0198544
3.12399
3.96067
0.22053
2.00532
1.05135
-0.000243093
-0.00186279
-0.00147602
-0.000348696
-0.00011741
-0.000609333
-5.34693e-05
0.00068105
-0.000842384
0.000924804
-0.00058146
-0.000126029
-0.00106341
-0.000560136
0.00939928
0.00202308
-0.00128928
-0.00357614
-0.000882975
0.00514208
0.0113507
-0.00156873
-0.00177732
-0.000725485
-0.000122701
-0.000249657
-0.000355691
-0.00022471
-9.91221e-09
1.32425e-06
-0.000401559
3.71158e-05
4.36434e-05
3.82993
4.46151
0.996246
2.6595
4.63652
4.66109
4.06279
4.54308
3.16387
1.79048
4.65588
4.65714
3.55902
4.64419
3.77753
0.566694
4.13474
1.32307
4.66001
4.63545
2.80506
1.53572
3.88728
4.48007
0.324177
4.64477
4.37879
4.62207
4.4642
3.52164
2.43714
1.5048
-0.00824413
-0.00254805
-0.013417
-0.0116562
-0.00131578
-0.000149202
2.27206e-05
-6.90643e-05
-0.000620689
-0.00185516
-0.00555127
-0.00444844
0.0056467
0.0102207
-0.0024184
0.000493612
0.0119227
0.0149404
-0.000344209
-0.00122609
-6.91934e-05
-7.13391e-05
-0.000626971
-0.000202073
-0.000192317
-0.000734837
-0.00662803
-0.0134692
-0.000831839
0.00042273
-6.00725e-05
-9.43054e-05
3.27533
2.5332
2.18278
3.12189
3.26236
2.42991
2.82204
3.05853
3.08275
4.46562
1.95313
2.30289
3.9256
4.28212
3.3921
2.79087
-0.259601
-0.0641158
-0.237576
2.29339
0.278375
0.027837
0.876711
1.70249
-0.009387
-0.00344355
4.5361
-0.150413
-0.0718551
-0.0300801
-0.00276675
-0.0103445
4.39338
0.0952911
1.1485
2.71895
2.51524
3.79839
4.37494
3.35717
3.14019
3.03678
2.94516
4.53227
4.45953
4.67741
4.67711
4.59177
4.62708
4.49735
4.41451
4.33526
4.62295
4.56996
4.49801
4.3493
3.84958
4.29216
-0.0224141
0.213618
0.43592
-0.186363
0.354393
0.549795
-0.0052532
-0.0132161
-0.0207338
-0.0055401
-0.00877075
-0.0303141
-0.0267324
-9.77366e-05
0.0213398
0.00681893
0.00141942
0.00272693
0.00649512
-0.00265322
0.0153172
0.01261
-0.0678302
-0.0748072
-0.0590153
-0.049646
-0.0847654
-0.0506484
-0.0515597
-0.0708162
-0.151989
-0.112737
-0.1709
-0.177497
-0.0648044
-0.0203254
-0.0665784
-0.0280132
0.0119301
-0.000443391
0.00389284
0.00691641
0.00271912
-0.00572547
-0.00779912
-0.00489815
0.00186457
0.00351202
0.00141995
0.00298914
0.00225364
0.00353186
0.000182845
-0.000142851
0.00932862
0.0148629
-0.00324868
-0.0140154
0.0162694
0.0292101
-0.0169509
-0.00667952
0.265025
0.0683352
0.0773664
-0.00616038
-0.0733774
0.048785
0.0917608
0.0426472
0.00507544
0.0173736
-0.0063843
-0.00426935
-0.00804202
-0.00979605
-0.0068737
-0.0644475
-0.0185202
-0.0076742
-0.0147041
0.0083521
-0.148176
0.369844
0.0759745
0.317639
-0.179722
0.118789
-0.00438439
-0.0436569
-0.142328
-0.0026093
0.00210159
-0.00306348
-0.00372221
-0.00303837
0.00170334
0.00578103
0.00374724
0.00634694
0.00798654
-0.000685392
-0.000927663
-0.00171176
-4.32156e-05
-0.000156282
-0.000321622
-0.000508216
0.00181553
-0.00180693
-4.55877e-05
9.77304e-06
0.00238389
0.00268037
-0.00210552
-0.000893463
-0.000557096
-0.000289554
-0.000735141
-0.000687438
0.00078826
0.000259652
1.66832e-05
9.76876e-06
-7.16497e-06
0.000428881
-0.000549309
-2.86536e-05
-0.000322126
-0.000688913
-8.07613e-05
-0.000181779
0.0019958
0.000626901
0.0609133
0.047323
0.0524859
0.0331927
0.172167
0.0847887
-0.0117525
-0.00577814
0.273778
-0.0264158
-0.0159841
0.124048
0.110784
0.365299
-0.0232488
-0.015057
-0.00260553
0.012135
0.0274265
-0.0151058
-0.0716721
-0.00868851
0.0039214
-0.00233176
-0.00016556
-0.00958688
0.131518
0.218851
0.149576
0.129444
-0.0678599
-0.00177866
-4.44738e-05
-1.08401e-05
0.000346113
-0.000309518
-2.88121e-05
-7.70392e-07
7.34664e-06
8.0542e-07
-0.000103816
4.50156e-05
-0.00116923
-0.00497344
2.03154e-05
-4.60841e-06
1.57048e-05
3.182e-06
1.82823e-05
-0.000701246
-0.00085977
0.000124231
4.38357e-05
-8.11073e-07
9.17858e-08
-8.36537e-05
-1.77569e-05
-0.000147173
-0.000202861
-0.000589877
-0.00138188
4.81553e-06
-0.000187981
-6.2248e-05
4.63087
4.56945
-0.00236239
0.00184733
0.00603697
1.69222
3.97664
4.477
4.61061
4.63519
0.0428407
-0.00724415
1.64847
-0.0380801
3.78586
4.44435
3.67144
2.49444
4.63015
4.64367
4.39569
4.65024
-0.0334554
1.90906
4.64179
4.36867
4.48194
4.73166
4.05746
1.99731
0.164209
-0.0284023
0.000128815
-0.00290347
7.86677e-05
-3.98596e-05
-1.71917e-05
0.000130002
0.0142791
-9.66712e-05
-3.19003e-05
8.88609e-06
0.000108989
-0.000177143
0.000388403
-0.00119824
-0.0017147
0.0042657
-5.27393e-05
-0.011681
-0.00958128
1.99657e-05
0.00032294
0.00220492
-0.000142598
-0.000155094
-0.000113668
-0.00722038
-0.00199101
-0.0020141
7.2822e-05
0.000179896
-0.000107932
7.46894e-05
-0.00116369
-0.000798681
0.000103336
-0.000885476
0.000188262
1.92587e-05
0.000251486
0.000161025
-2.50211e-05
0.000239912
0.000140404
-6.91003e-05
-0.000117169
0.988665
0.628763
-5.58849e-05
4.42234e-05
6.34364e-05
0.0302075
0.0264473
0.0501208
0.96112
0.521539
-0.00213834
0.0700028
-0.00160664
-0.00100408
0.0575013
-0.000268437
-0.000113995
0.0136
-0.00040949
1.34595e-05
-5.1973e-07
8.95892e-05
-7.43222e-05
-8.19564e-07
1.8137e-06
1.24034e-06
5.67814e-06
-1.89423e-05
7.19893e-07
-1.0922e-06
9.65809e-07
-5.04629e-08
-8.25675e-08
2.90305e-05
9.15022e-05
0.000115564
9.72663e-05
5.70764e-05
7.6943e-06
-3.96486e-05
1.17826e-05
-3.06928e-07
-1.20989e-08
7.06121e-05
-0.000148589
-2.24986e-05
2.13007e-05
9.34429e-06
8.08255e-06
-5.75745e-07
-2.07743e-05
5.44084e-07
2.3801e-06
-2.11679e-05
-6.53398e-06
-1.2475e-05
-1.25708e-05
-7.54656e-07
2.06981e-06
-1.77969e-06
3.16559e-06
5.29636e-06
-1.05659e-06
1.86094e-06
1.77545e-09
2.31223e-07
4.10735e-07
-3.3735e-07
1.54768e-06
1.73424e-06
4.19387e-06
1.23766e-05
-2.34503e-06
-1.07142e-06
2.60546e-05
1.71282e-05
5.71726e-07
2.22849e-05
-4.62456e-05
-4.82645e-05
1.98011e-05
5.99623e-05
1.23362e-05
8.63702e-09
-1.74889e-06
-6.81845e-07
-2.59294e-08
1.02256e-08
-7.55918e-08
2.83426e-07
-5.13869e-07
9.95801e-07
-2.15956e-07
1.40292e-08
2.35003e-09
3.76919e-09
-3.6569e-09
1.00627e-09
-3.13728e-08
3.42636e-08
-4.77705e-08
6.26383e-06
2.23377e-07
-1.77383e-07
1.57068e-06
-1.1742e-07
-8.44204e-09
4.60313e-07
7.22011e-07
3.41228e-08
6.34362e-09
2.7689e-08
-1.11957e-08
5.93683e-09
1.01932e-09
-1.35967e-06
-5.02296e-08
3.89665e-08
-4.67252e-07
4.63512e-08
2.29707e-07
7.19245e-09
-5.74956e-08
-1.16506e-08
1.49602e-08
-7.37829e-08
-1.18229e-08
-1.17252e-08
-7.70796e-09
-6.01916e-09
1.7611e-09
5.5978e-07
-6.50754e-07
7.98751e-08
1.38452e-07
-5.10216e-08
1.14722e-08
1.06928e-07
-1.05569e-07
-5.73783e-07
1.65915e-07
-2.32517e-06
1.81831e-06
8.00597e-08
6.76708e-07
-5.32874e-08
3.43141e-07
3.90303e-09
-2.94775e-09
-6.30638e-09
2.06966e-10
0
-1.85403e-09
1.70467e-09
-6.9154e-10
0
1.12386e-10
-1.86768e-10
0
-3.60531e-07
0
1.90213e-10
0
0
1.13462e-08
-2.56765e-08
7.1989e-08
-6.09083e-08
2.41228e-07
1.5408e-08
5.5795e-09
1.59856e-10
1.15883e-08
1.80499e-08
-1.52531e-08
-2.52549e-09
0
-2.9418e-09
1.71726e-09
