# vtk DataFile Version 2.0
Unstructured Grid by M++
ASCII
DATASET UNSTRUCTURED_GRID
POINTS 1089 float
  0.968750   0.906250 0
  0.968750   0.937500 0
  1.000000   0.906250 0
  1.000000   0.937500 0
  1.000000   0.968750 0
  0.906250   0.906250 0
  0.906250   0.875000 0
  0.906250   0.812500 0
  0.906250   0.843750 0
  0.937500   0.906250 0
  0.937500   0.937500 0
  0.937500   0.843750 0
  0.937500   0.875000 0
  0.968750   0.875000 0
  0.968750   0.656250 0
  0.968750   0.687500 0
  1.000000   0.656250 0
  1.000000   0.625000 0
  1.000000   0.687500 0
  0.906250   0.656250 0
  0.906250   0.687500 0
  0.906250   0.625000 0
  0.906250   0.531250 0
  0.906250   0.562500 0
  0.906250   0.593750 0
  0.937500   0.656250 0
  0.937500   0.687500 0
  0.937500   0.531250 0
  0.937500   0.562500 0
  0.937500   0.593750 0
  0.937500   0.625000 0
  0.968750   0.625000 0
  0.968750   0.593750 0
  1.000000   0.593750 0
  0.968750   0.562500 0
  1.000000   0.562500 0
  1.000000   0.531250 0
  0.968750   0.531250 0
  0.781250   1.000000 0
  0.812500   0.781250 0
  0.812500   0.812500 0
  0.875000   0.843750 0
  0.875000   0.812500 0
  0.875000   0.875000 0
  0.781250   0.781250 0
  0.843750   0.843750 0
  0.843750   0.812500 0
  0.875000   0.781250 0
  0.843750   0.781250 0
  0.781250   0.750000 0
  0.781250   0.718750 0
  0.781250   0.687500 0
  0.812500   0.750000 0
  0.812500   0.718750 0
  0.812500   0.531250 0
  0.812500   0.687500 0
  0.812500   0.656250 0
  0.812500   0.562500 0
  0.812500   0.593750 0
  0.812500   0.625000 0
  0.875000   0.687500 0
  0.875000   0.656250 0
  0.875000   0.593750 0
  0.875000   0.562500 0
  0.875000   0.625000 0
  0.781250   0.531250 0
  0.781250   0.562500 0
  0.781250   0.625000 0
  0.781250   0.593750 0
  0.781250   0.656250 0
  0.843750   0.656250 0
  0.843750   0.593750 0
  0.843750   0.562500 0
  0.843750   0.625000 0
  0.843750   0.687500 0
  0.843750   0.750000 0
  0.875000   0.531250 0
  0.843750   0.531250 0
  0.656250   0.906250 0
  0.656250   0.937500 0
  0.656250   1.000000 0
  0.656250   0.968750 0
  0.687500   1.000000 0
  0.687500   0.968750 0
  0.687500   0.937500 0
  0.718750   0.937500 0
  0.718750   0.968750 0
  0.718750   1.000000 0
  0.656250   0.781250 0
  0.656250   0.812500 0
  0.656250   0.843750 0
  0.656250   0.875000 0
  0.750000   0.968750 0
  0.750000   1.000000 0
  0.750000   0.656250 0
  0.750000   0.625000 0
  0.687500   0.656250 0
  0.687500   0.687500 0
  0.687500   0.625000 0
  0.718750   0.656250 0
  0.718750   0.687500 0
  0.718750   0.718750 0
  0.656250   0.531250 0
  0.656250   0.562500 0
  0.656250   0.656250 0
  0.656250   0.687500 0
  0.656250   0.750000 0
  0.656250   0.718750 0
  0.656250   0.625000 0
  0.656250   0.593750 0
  0.750000   0.687500 0
  0.750000   0.718750 0
  0.750000   0.750000 0
  0.687500   0.531250 0
  0.687500   0.562500 0
  0.687500   0.593750 0
  0.718750   0.625000 0
  0.750000   0.531250 0
  0.718750   0.531250 0
  0.750000   0.562500 0
  0.718750   0.562500 0
  0.718750   0.593750 0
  0.750000   0.593750 0
  0.562500   1.000000 0
  0.562500   0.968750 0
  0.562500   0.937500 0
  0.562500   0.906250 0
  0.562500   0.812500 0
  0.562500   0.843750 0
  0.562500   0.875000 0
  0.625000   0.937500 0
  0.625000   0.906250 0
  0.562500   0.781250 0
  0.625000   0.875000 0
  0.531250   1.000000 0
  0.531250   0.968750 0
  0.531250   0.937500 0
  0.531250   0.812500 0
  0.531250   0.875000 0
  0.531250   0.843750 0
  0.531250   0.906250 0
  0.593750   0.906250 0
  0.593750   0.843750 0
  0.593750   0.875000 0
  0.593750   0.812500 0
  0.625000   0.843750 0
  0.625000   0.812500 0
  0.593750   0.937500 0
  0.625000   1.000000 0
  0.593750   1.000000 0
  0.593750   0.968750 0
  0.625000   0.968750 0
  0.625000   0.781250 0
  0.593750   0.781250 0
  0.562500   0.531250 0
  0.562500   0.750000 0
  0.562500   0.718750 0
  0.562500   0.687500 0
  0.562500   0.656250 0
  0.562500   0.562500 0
  0.562500   0.593750 0
  0.562500   0.625000 0
  0.625000   0.687500 0
  0.625000   0.656250 0
  0.625000   0.593750 0
  0.625000   0.562500 0
  0.625000   0.625000 0
  0.531250   0.531250 0
  0.531250   0.750000 0
  0.531250   0.718750 0
  0.531250   0.687500 0
  0.531250   0.562500 0
  0.531250   0.625000 0
  0.531250   0.593750 0
  0.531250   0.656250 0
  0.593750   0.656250 0
  0.593750   0.593750 0
  0.593750   0.562500 0
  0.593750   0.625000 0
  0.593750   0.687500 0
  0.625000   0.750000 0
  0.593750   0.750000 0
  0.593750   0.718750 0
  0.625000   0.718750 0
  0.625000   0.531250 0
  0.593750   0.531250 0
  0.968750   0.406250 0
  0.968750   0.437500 0
  0.968750   0.468750 0
  0.968750   0.500000 0
  1.000000   0.406250 0
  1.000000   0.375000 0
  1.000000   0.437500 0
  1.000000   0.468750 0
  1.000000   0.500000 0
  0.906250   0.500000 0
  0.906250   0.406250 0
  0.906250   0.437500 0
  0.906250   0.281250 0
  0.906250   0.312500 0
  0.906250   0.343750 0
  0.906250   0.375000 0
  0.937500   0.406250 0
  0.937500   0.500000 0
  0.937500   0.468750 0
  0.937500   0.437500 0
  0.937500   0.281250 0
  0.937500   0.312500 0
  0.937500   0.343750 0
  0.937500   0.375000 0
  0.968750   0.375000 0
  1.000000   0.281250 0
  0.968750   0.281250 0
  1.000000   0.312500 0
  0.968750   0.312500 0
  0.968750   0.343750 0
  1.000000   0.343750 0
  0.968750   0.125000 0
  0.968750   0.156250 0
  0.968750   0.187500 0
  1.000000   0.000000 0
  1.000000   0.156250 0
  1.000000   0.125000 0
  1.000000   0.187500 0
  1.000000   0.218750 0
  0.531250   0.781250 0
  1.000000   0.250000 0
  0.906250   0.250000 0
  0.906250   0.218750 0
  0.937500   0.250000 0
  0.937500   0.218750 0
  0.968750   0.250000 0
  0.906250   0.031250 0
  0.906250   0.000000 0
  0.906250   0.062500 0
  0.906250   0.093750 0
  0.906250   0.125000 0
  0.937500   0.156250 0
  0.937500   0.031250 0
  0.937500   0.000000 0
  0.937500   0.062500 0
  0.937500   0.093750 0
  0.937500   0.125000 0
  1.000000   0.031250 0
  0.968750   0.031250 0
  0.968750   0.000000 0
  1.000000   0.062500 0
  0.968750   0.062500 0
  0.968750   0.093750 0
  1.000000   0.093750 0
  0.781250   0.312500 0
  0.781250   0.343750 0
  0.812500   0.500000 0
  0.812500   0.468750 0
  0.812500   0.437500 0
  0.812500   0.281250 0
  0.812500   0.312500 0
  0.812500   0.343750 0
  0.812500   0.375000 0
  0.875000   0.281250 0
  0.875000   0.406250 0
  0.875000   0.343750 0
  0.875000   0.312500 0
  0.875000   0.375000 0
  0.843750   0.281250 0
  0.843750   0.312500 0
  0.843750   0.375000 0
  0.843750   0.343750 0
  0.781250   0.500000 0
  0.781250   0.468750 0
  0.781250   0.437500 0
  0.781250   0.406250 0
  0.875000   0.500000 0
  0.843750   0.500000 0
  0.843750   0.468750 0
  0.875000   0.468750 0
  0.781250   0.281250 0
  0.843750   0.218750 0
  0.843750   0.250000 0
  0.843750   0.187500 0
  0.843750   0.156250 0
  0.875000   0.218750 0
  0.875000   0.250000 0
  0.875000   0.187500 0
  0.812500   0.062500 0
  0.812500   0.250000 0
  0.812500   0.218750 0
  0.812500   0.187500 0
  0.812500   0.156250 0
  0.812500   0.125000 0
  0.843750   0.093750 0
  0.843750   0.062500 0
  0.875000   0.125000 0
  0.875000   0.093750 0
  0.875000   0.062500 0
  0.781250   0.250000 0
  0.781250   0.218750 0
  0.781250   0.187500 0
  0.093750   0.937500 0
  0.125000   1.000000 0
  0.937500   0.718750 0
  0.250000   0.000000 0
  0.093750   0.968750 0
  0.125000   0.968750 0
  0.000000   0.718750 0
  0.000000   0.750000 0
  0.125000   0.531250 0
  0.125000   0.562500 0
  0.093750   0.531250 0
  0.031250   0.750000 0
  0.125000   0.468750 0
  0.156250   0.468750 0
  0.500000   0.375000 0
  0.156250   0.500000 0
  0.406250   0.406250 0
  0.406250   0.437500 0
  0.406250   0.500000 0
  0.406250   0.468750 0
  0.406250   0.375000 0
  0.750000   0.312500 0
  0.437500   0.406250 0
  0.437500   0.500000 0
  0.437500   0.468750 0
  0.437500   0.437500 0
  0.468750   0.437500 0
  0.468750   0.468750 0
  0.406250   0.281250 0
  0.406250   0.312500 0
  0.062500   0.375000 0
  0.406250   0.343750 0
  0.062500   0.406250 0
  0.500000   0.468750 0
  0.500000   0.500000 0
  0.437500   0.281250 0
  0.437500   0.312500 0
  0.437500   0.343750 0
  0.093750   0.406250 0
  0.437500   0.375000 0
  0.093750   0.437500 0
  0.468750   0.375000 0
  0.125000   0.437500 0
  0.500000   0.281250 0
  0.468750   0.281250 0
  0.500000   0.312500 0
  0.468750   0.312500 0
  0.468750   0.343750 0
  0.500000   0.343750 0
  0.843750   0.906250 0
  0.156250   0.187500 0
  0.468750   0.187500 0
  0.468750   0.218750 0
  0.468750   0.250000 0
  0.406250   0.031250 0
  0.750000   0.812500 0
  0.062500   0.093750 0
  0.406250   0.000000 0
  0.750000   0.781250 0
  0.062500   0.062500 0
  0.500000   0.187500 0
  0.500000   0.218750 0
  0.500000   0.250000 0
  0.437500   0.031250 0
  0.781250   0.812500 0
  0.093750   0.093750 0
  0.437500   0.000000 0
  0.437500   0.062500 0
  0.781250   0.843750 0
  0.093750   0.125000 0
  0.406250   0.187500 0
  0.406250   0.250000 0
  0.406250   0.218750 0
  0.437500   0.250000 0
  0.437500   0.218750 0
  0.437500   0.187500 0
  0.500000   0.000000 0
  0.500000   0.031250 0
  0.468750   0.031250 0
  0.468750   0.000000 0
  0.500000   0.062500 0
  0.468750   0.062500 0
  0.812500   0.843750 0
  0.125000   0.125000 0
  0.812500   0.875000 0
  0.125000   0.156250 0
  0.500000   0.093750 0
  0.843750   0.875000 0
  0.156250   0.156250 0
  1.000000   1.000000 0
  0.312500   0.281250 0
  0.656250   0.218750 0
  0.437500   0.156250 0
  0.312500   0.500000 0
  0.437500   0.125000 0
  0.312500   0.468750 0
  0.437500   0.093750 0
  0.781250   0.031250 0
  0.312500   0.437500 0
  0.312500   0.406250 0
  0.312500   0.312500 0
  0.312500   0.343750 0
  0.312500   0.375000 0
  0.375000   0.437500 0
  0.375000   0.406250 0
  0.375000   0.343750 0
  0.718750   0.281250 0
  0.375000   0.375000 0
  0.968750   1.000000 0
  0.281250   0.281250 0
  0.406250   0.156250 0
  0.281250   0.500000 0
  0.406250   0.125000 0
  0.281250   0.468750 0
[...]
CELL_DATA 1024
SCALARS scalar_value float 1
LOOKUP_TABLE default
-0.019879
-0.0287654
0.0535544
0.0112129
-0.0822862
-0.0132868
-0.000221348
-0.00403589
-0.0144528
0.00875988
0.0296299
-0.00774168
-0.0479086
-0.000161892
0.000121735
-0.00402913
-0.0149332
0.026404
0.0184541
0.0346768
0.0210501
-9.17356e-05
-8.11846e-05
-2.9021e-07
-4.27492e-05
0.00010461
-0.00876132
0.028074
-0.00979392
-0.0828087
-0.0122089
0.00016729
0.0510304
0.0185796
-0.00222173
-0.00791171
0.0217866
0.00882698
0.0523395
0.0315098
0.00856176
-0.00787266
0.0900005
0.0422853
0.00477968
0.102055
-0.00808949
0.0765773
0.0120979
0.019455
0.0278028
-0.0361318
-0.105139
-0.00340764
0.00194578
-0.00193666
0.0079194
0.00864843
0.0365698
-0.000485558
-0.0025479
0.0160561
0.0137337
-0.00127845
6.13239e-05
0.000129227
-1.12589e-06
2.39257e-06
-0.00237516
-0.00232361
5.29651e-05
0.000295607
7.01103e-07
-8.67564e-07
-0.0117251
-0.00209875
0.257797
0.0745947
0.990694
-1.74759e-05
-0.00119891
-9.59948e-06
9.8592e-08
-0.0446952
0.00377179
0.0756253
0.333861
1.63506
-3.85998e-06
-1.74617e-06
7.03249e-05
0.000141582
-0.00263631
0.164741
0.568854
0.0448094
0.445534
1.04786
1.14442
0.586503
1.88689
2.73249
3.07834
3.00025
3.78607
2.27826
2.24787
4.51993
4.34902
3.95779
2.90593
0.0148905
0.0313276
-0.00032914
0.0648288
-5.69045e-06
0.401319
-0.075697
-0.074269
-0.0476103
0.391117
0.0181185
0.0123582
0.176457
0.0266983
0.0537276
0.15939
2.20932
2.47586
-2.84019e-05
2.14264e-05
2.26634
3.01304
0.60196
-0.00527836
0.00131187
1.94868e-06
2.39537e-06
-1.80822e-05
2.73381
3.37202
-0.0131725
0.553119
0.000767443
0.000236912
-9.99181e-06
1.60535e-06
0.00528556
0.000234048
-9.44478e-05
-0.00469174
1.05004
1.08989e-05
6.54894e-06
-0.00123846
-0.000172985
0.00944855
0.143634
2.0448
3.02319
3.80198
2.75055
3.19945
2.14732
2.61641
1.07313
0.258742
0.994054
2.03638
4.06211
3.32419
4.1644
3.36972
2.50654
4.31887
4.26916
3.7321
3.19369
4.60571
4.46795
4.2865
4.62848
4.5007
4.55726
4.06327
3.63913
4.57133
4.39123
4.63474
4.51599
4.11208
4.26935
0.000327006
-0.00036683
-0.000241208
-4.09874e-05
-0.000129439
-9.86548e-05
0.000126199
0.000253092
-0.000262471
-0.000786032
0.00122891
0.00199256
5.61658e-05
0.000419807
-0.000112186
0.000313159
9.39238e-05
4.84437e-05
7.59399e-05
-2.60309e-05
7.38949e-05
-0.000134446
0.0445834
0.00197206
0.864194
0.3361
-0.000130057
9.62034e-05
-0.00554832
-0.0111707
-0.000379897
0.00709054
0.000840576
-3.90604e-05
0.000467537
-0.000659975
-0.000620545
0.00221726
0.00203907
0.000486682
0.000332292
-0.00446816
0.000194061
-0.00151334
-0.00342352
-0.0103171
-0.0242208
0.288744
0.85358
-0.0187775
-0.0049546
0.00193564
-0.0077944
0.00534265
-0.00220819
-0.0181016
0.0747204
0.0197598
0.128816
0.0724193
0.00788637
0.00456274
-0.0008138
0.00286859
0.00231595
-0.00156673
-3.70767e-05
0.000265751
0.000322542
0.00101929
2.86549e-05
-7.78971e-05
1.6373e-05
-1.01543e-05
3.28706e-08
1.55686e-05
-0.00117973
0.000567458
4.72206e-06
9.37993e-06
9.29669e-05
0.000246214
0.000133782
-0.000278796
-2.77218e-06
4.12491e-05
6.72533e-06
4.434e-05
8.28621e-06
3.41851e-06
-3.35431e-06
8.54662e-07
1.12221e-07
-5.73468e-07
4.44259e-07
1.20621e-06
4.40311e-10
-2.20747e-09
-3.43693e-10
-1.55651e-10
5.37522e-06
-4.37273e-05
-1.9233e-06
9.2796e-07
3.61987e-06
-1.42932e-06
3.29773e-06
-1.42928e-05
6.67355e-06
3.06048e-06
3.05912e-07
5.34534e-07
-3.02495e-07
4.60153e-07
-1.10219e-07
1.54051e-07
-5.82798e-07
-3.88811e-08
9.53428e-09
-2.46798e-06
1.29174e-06
-8.46563e-08
-2.10484e-09
-1.47424e-08
4.03541e-08
1.84525e-09
2.38357e-08
-6.92182e-08
0.354498
0.357083
0.570628
0.173395
0.187671
0.0224458
-0.00234579
0.000298147
4.46769
4.45804
4.1406
3.35044
2.51887
4.26908
0.156685
0.000643767
3.94584e-05
0.044372
0.41123
0.0545095
0.0329699
0.000263068
-0.000395792
0.0237325
0.00220966
0.00604826
0.00326322
0.00712869
0.00803883
-0.000120595
0.00201427
0.000391972
0.000181571
-0.000350879
0.00149874
-9.05842e-05
-8.64418e-05
8.19783e-05
-2.16786e-05
3.54647e-05
-1.43366e-05
5.38866e-06
-0.000254678
-6.38599e-05
-5.41874e-05
-1.79277e-05
-7.56151e-06
-1.93601e-05
-3.45257e-05
0.00012658
-3.45081e-05
6.11704e-06
-3.20287e-06
7.79348e-07
6.38269e-06
-1.25712e-05
4.47538e-05
-2.70238e-05
-4.74313e-05
-4.93174e-05
-1.97019e-07
1.94744e-06
-1.09673e-05
8.22267e-07
4.6362
4.60707
4.59105
3.83776
4.65368
4.64377
4.51723
4.60543
3.90398
4.62586
4.66198
4.53661
4.5441
4.47464
4.41477
2.66654
2.23535
4.51836
3.79963
4.63239
4.63697
4.5824
4.13507
2.71384
0.0127624
0.418002
4.6075
4.64392
2.57054
4.37003
3.97044
0.927891
-0.00282575
0.0661944
0.000542487
0.000167532
0.000814168
0.00132616
-0.00136017
0.0012395
0.00260005
0.000129175
2.09122e-06
0.000162869
0.000211368
1.14302
-0.0118098
-0.00107188
-0.00272491
-0.00903277
-0.012615
1.12283
0.00116143
-0.00184466
-0.00950398
-5.76612e-05
5.56887e-05
3.03732e-05
0.000177784
2.02255e-05
-6.5022e-06
-0.000914543
-0.000296064
5.03602e-05
3.12672
4.11814
0.158716
1.5419
4.59312
4.64204
3.50707
4.33816
2.23131
0.653279
4.66031
4.6361
4.62997
4.64889
4.63386
4.0026
4.64326
4.31591
4.64869
4.59619
1.49784
0.199639
3.11913
4.13555
3.53706
4.61437
3.59781
4.33719
4.65129
2.24247
0.62944
4.40489
-0.0137186
-0.00421994
1.50826
-0.0247636
-0.00132868
-0.000448382
4.96567e-05
3.31623e-06
0.000105415
0.000956628
-0.00851636
0.00110788
-0.0137231
1.36069
-0.00072099
-0.00287709
0.00955354
0.399793
-0.00109082
-0.00322143
-0.000225556
-0.000142312
0.000511854
0.000112012
0.000182374
0.00100581
-0.00963618
2.04317
-0.00729227
-0.00237287
0.000135335
0.000177894
-0.018808
0.0117119
4.20473
2.68779
2.25277
4.04053
3.70228
3.31775
3.02157
1.02124
0.0215039
0.0274816
0.0777195
0.416538
-0.0118622
0.00749937
0.000200811
-4.76948e-05
0.00024442
4.32547
-0.00204099
0.0054388
-0.00589585
0.00297855
0.00416716
-0.00286045
1.74262
-0.00110939
-0.000134441
0.00140633
-0.00120628
0.000693239
4.02391
-0.0384374
-0.00692141
4.63166
4.49647
4.41578
4.39253
4.6481
4.77844
4.77818
4.71568
2.38884
2.72589
3.84873
4.33621
2.95627
3.33149
2.75005
2.73409
3.81964
2.27129
1.15885
3.04781
3.51604
-0.0477296
0.246049
0.080639
0.124683
0.0955571
0.0290497
0.00231609
0.0300685
4.45798
3.37132
2.88201
4.33154
3.91567
2.67348
2.46131
1.70046
0.524006
3.34517
1.99013
4.14431
-0.0307914
0.579964
0.0114775
0.0648495
4.60916
4.62825
4.57079
4.44985
2.21268
1.02009
4.10421
3.36346
4.60407
4.57072
4.59947
4.60553
3.01444
3.46156
4.41291
4.01905
-0.0569051
0.00273472
0.0304417
-0.00538586
0.0363499
0.0264033
0.0110272
0.00407732
-0.00909871
0.0113701
0.0177663
0.027442
0.0150973
0.021287
0.0100038
-0.00458373
0.235621
-0.0281035
-0.0606455
-0.10227
0.0115129
0.442991
-0.0857844
-0.0401218
4.08927
2.43995
2.65261
2.35905
2.63489
2.95883
3.77201
3.35573
4.24165
4.07751
0.991614
1.19142
1.78866
1.37644
1.8304
1.45163
-0.0133707
-0.227048
0.285246
2.13456
-0.321356
0.323128
1.48369
1.34712
-0.0445767
0.0267207
0.603641
0.359699
-0.018012
0.606865
2.54371
2.07065
3.00268
3.08993
4.25178
0.0347198
3.7984
2.46331
0.716424
0.0591482
-0.0998936
-0.273581
0.00151776
0.00280593
-0.00949176
-0.0252705
0.0319183
0.0367351
-0.00146959
0.000106879
0.00147423
0.01785
0.693733
0.265521
0.00448387
-0.00271778
0.0293507
0.109092
0.0180977
0.0709577
0.000432364
0.00217746
-0.00393866
0.00166331
-0.000384312
-0.00249724
-0.00279295
-0.000319779
-0.00442959
-0.00108885
-0.00695828
-0.00138656
-0.0115309
0.0735987
-0.00662901
-0.0329855
0.039609
0.0196189
0.0545921
-0.0141029
-0.050152
-0.0231099
-0.0042926
0.15866
-0.0580427
0.116388
0.0764494
-0.00396938
0.0256218
0.0304177
0.0247975
-0.0298362
-0.064661
-0.00775692
-0.00840558
0.0375456
0.0634547
0.00208542
-0.0868791
0.0991418
0.0272094
-0.0721699
-0.125737
0.0384517
0.0303152
0.0249064
0.00607573
0.00940546
0.00233251
-0.000530411
0.000134797
0.000123758
0.0460694
0.0420165
0.00756574
0.0139026
-0.000893036
0.00490521
4.10747e-05
9.1626e-05
6.01198e-05
0.0319796
0.0495907
0.104816
0.0816932
3.90621e-05
4.81558e-05
0.00850032
-0.000609272
0.0540694
0.0215526
0.0671333
0.0732571
-0.00193938
0.00374122
-0.0033037
4.50376
4.61004
0.665545
-0.0110313
3.6477
4.66517
4.6696
4.7144
4.59349
4.64259
2.38036
0.182631
4.61406
4.13671
4.67701
4.65396
2.44389
0.855611
4.65273
4.51674
3.75742
4.65096
2.12411
4.5064
4.36226
4.18688
4.5928
4.50879
4.76656
4.40768
3.45213
0.847566
0.0021189
0.00300392
-2.14432e-05
2.35035e-05
-9.62462e-05
0.000173121
-0.01135
0.000249827
-5.48458e-05
8.42409e-05
2.15593e-05
0.000173437
-6.64709e-05
0.000805543
-0.00233207
-0.00923464
-0.000158081
-0.0129236
-0.0105588
0.000649701
0.00348419
0.00341854
4.33353e-05
-0.000163682
-1.47287e-05
-0.0108039
-0.000439078
-0.00255221
0.000443751
0.000306479
-2.67397e-05
9.92544e-08
-0.000332636
0.00623516
-0.0141119
-0.0110722
-0.00107444
0.000427132
-0.00427558
-0.0107787
7.54975e-05
0.00101025
-0.00145313
-0.000398615
0.000378208
4.12493
4.22727
-7.89954e-05
0.000179149
-9.79538e-05
1.13672
1.14986
0.390631
3.80904
3.08683
0.425963
1.80356
-6.67042e-05
-1.28075e-05
-0.139501
-0.000154979
0.000100067
-0.0654946
0.0295013
2.45808e-05
-1.52955e-05
-0.000114772
2.57389e-05
1.77292e-05
1.47764e-06
2.90755e-06
1.92177e-05
-2.88509e-05
-7.25447e-07
3.52955e-06
8.10064e-07
-1.33564e-06
7.93198e-07
-0.000199978
-6.20375e-05
-0.000328816
-0.000878013
-5.27334e-05
-2.23993e-06
4.3409e-05
-1.18271e-05
7.41858e-07
1.87939e-07
-0.00017099
0.000741099
2.94475e-05
8.29653e-07
-3.45574e-05
-3.9306e-06
-1.63923e-06
3.37655e-05
-2.26464e-06
-1.33688e-05
-2.22496e-05
5.09932e-05
-0.000596346
0.000594245
-0.000143591
-6.74562e-05
0.000197056
0.000330042
-0.000127519
-0.000452342
-8.78798e-05
-0.000129037
-2.76659e-05
8.09611e-05
-4.44391e-05
0.000108853
-0.000128637
-4.85167e-07
-3.51009e-05
4.27202e-05
2.64748e-05
-0.000874134
-0.000102454
2.20123e-06
0.000164354
-8.17616e-05
-0.000330493
-2.42963e-05
-0.00361999
-0.000893492
-2.86564e-08
1.774e-05
0.000139482
1.43824e-06
-1.23723e-07
1.16624e-06
-8.33395e-06
1.48696e-05
-2.09386e-05
1.34158e-05
8.00118e-07
3.81093e-07
2.10942e-07
-1.23572e-07
-6.60077e-07
5.88618e-07
-3.37659e-06
8.52846e-06
-5.32808e-06
-1.11705e-06
1.21191e-06
-4.48622e-06
5.55532e-07
1.59091e-08
-1.98487e-06
1.21141e-05
-3.79205e-07
7.32652e-07
2.16014e-07
-9.74578e-08
-4.96265e-08
-5.63149e-08
-4.38303e-06
-1.64447e-06
-8.89536e-06
-4.16784e-05
-3.50714e-05
1.68233e-05
1.0663e-05
1.69233e-06
8.45063e-07
-2.79506e-06
-4.2888e-07
-1.40102e-06
4.70453e-07
2.24036e-06
-2.13339e-07
-3.47648e-07
0.000120706
-0.000112437
-8.48126e-05
-7.80038e-05
-6.66531e-06
-8.40926e-07
6.74979e-05
4.84978e-06
-0.000152497
3.76819e-05
-0.000220124
-0.00031823
2.26059e-05
-6.95003e-06
4.48327e-05
-1.58002e-05
-1.60014e-07
1.25448e-06
2.03612e-07
2.38547e-08
-3.61727e-08
5.58746e-08
9.39878e-08
-1.85572e-08
3.62948e-08
-3.88333e-08
1.38232e-08
-1.56975e-09
-1.70242e-06
-9.14693e-09
1.41524e-08
7.23515e-10
-1.24789e-10
-8.12682e-07
1.72396e-06
3.12462e-06
-3.41466e-07
-1.85502e-05
-1.23482e-06
-8.91185e-07
-5.39146e-08
-1.68497e-07
-9.64798e-08
9.82654e-07
5.03096e-08
1.38188e-08
-7.46871e-08
1.84204e-07
