# vtk DataFile Version 2.0
Unstructured Grid by M++
ASCII
DATASET UNSTRUCTURED_GRID
POINTS 1089 float
  0.968750   0.906250 0
  0.968750   0.937500 0
  1.000000   0.906250 0
  1.000000   0.937500 0
  1.000000   0.968750 0
  0.906250   0.906250 0
  0.906250   0.875000 0
  0.906250   0.812500 0
  0.906250   0.843750 0
  0.937500   0.906250 0
  0.937500   0.937500 0
  0.937500   0.843750 0
  0.937500   0.875000 0
  0.968750   0.875000 0
  0.968750   0.656250 0
  0.968750   0.687500 0
  1.000000   0.656250 0
  1.000000   0.625000 0
  1.000000   0.687500 0
  0.906250   0.656250 0
  0.906250   0.687500 0
  0.906250   0.625000 0
  0.906250   0.531250 0
  0.906250   0.562500 0
  0.906250   0.593750 0
  0.937500   0.656250 0
  0.937500   0.687500 0
  0.937500   0.531250 0
  0.937500   0.562500 0
  0.937500   0.593750 0
  0.937500   0.625000 0
  0.968750   0.625000 0
  0.968750   0.593750 0
  1.000000   0.593750 0
  0.968750   0.562500 0
  1.000000   0.562500 0
  1.000000   0.531250 0
  0.968750   0.531250 0
  0.781250   1.000000 0
  0.812500   0.781250 0
  0.812500   0.812500 0
  0.875000   0.843750 0
  0.875000   0.812500 0
  0.875000   0.875000 0
  0.781250   0.781250 0
  0.843750   0.843750 0
  0.843750   0.812500 0
  0.875000   0.781250 0
  0.843750   0.781250 0
  0.781250   0.750000 0
  0.781250   0.718750 0
  0.781250   0.687500 0
  0.812500   0.750000 0
  0.812500   0.718750 0
  0.812500   0.531250 0
  0.812500   0.687500 0
  0.812500   0.656250 0
  0.812500   0.562500 0
  0.812500   0.593750 0
  0.812500   0.625000 0
  0.875000   0.687500 0
  0.875000   0.656250 0
  0.875000   0.593750 0
  0.875000   0.562500 0
  0.875000   0.625000 0
  0.781250   0.531250 0
  0.781250   0.562500 0
  0.781250   0.625000 0
  0.781250   0.593750 0
  0.781250   0.656250 0
  0.843750   0.656250 0
  0.843750   0.593750 0
  0.843750   0.562500 0
  0.843750   0.625000 0
  0.843750   0.687500 0
  0.843750   0.750000 0
  0.875000   0.531250 0
  0.843750   0.531250 0
  0.656250   0.906250 0
  0.656250   0.937500 0
  0.656250   1.000000 0
  0.656250   0.968750 0
  0.687500   1.000000 0
  0.687500   0.968750 0
  0.687500   0.937500 0
  0.718750   0.937500 0
  0.718750   0.968750 0
  0.718750   1.000000 0
  0.656250   0.781250 0
  0.656250   0.812500 0
  0.656250   0.843750 0
  0.656250   0.875000 0
  0.750000   0.968750 0
  0.750000   1.000000 0
  0.750000   0.656250 0
  0.750000   0.625000 0
  0.687500   0.656250 0
  0.687500   0.687500 0
  0.687500   0.625000 0
  0.718750   0.656250 0
  0.718750   0.687500 0
  0.718750   0.718750 0
  0.656250   0.531250 0
  0.656250   0.562500 0
  0.656250   0.656250 0
  0.656250   0.687500 0
  0.656250   0.750000 0
  0.656250   0.718750 0
  0.656250   0.625000 0
  0.656250   0.593750 0
  0.750000   0.687500 0
  0.750000   0.718750 0
  0.750000   0.750000 0
  0.687500   0.531250 0
  0.687500   0.562500 0
  0.687500   0.593750 0
  0.718750   0.625000 0
  0.750000   0.531250 0
  0.718750   0.531250 0
  0.750000   0.562500 0
  0.718750   0.562500 0
  0.718750   0.593750 0
  0.750000   0.593750 0
  0.562500   1.000000 0
  0.562500   0.968750 0
  0.562500   0.937500 0
  0.562500   0.906250 0
  0.562500   0.812500 0
  0.562500   0.843750 0
  0.562500   0.875000 0
  0.625000   0.937500 0
  0.625000   0.906250 0
  0.562500   0.781250 0
  0.625000   0.875000 0
  0.531250   1.000000 0
  0.531250   0.968750 0
  0.531250   0.937500 0
  0.531250   0.812500 0
  0.531250   0.875000 0
  0.531250   0.843750 0
  0.531250   0.906250 0
  0.593750   0.906250 0
  0.593750   0.843750 0
  0.593750   0.875000 0
  0.593750   0.812500 0
  0.625000   0.843750 0
  0.625000   0.812500 0
  0.593750   0.937500 0
  0.625000   1.000000 0
  0.593750   1.000000 0
  0.593750   0.968750 0
  0.625000   0.968750 0
  0.625000   0.781250 0
  0.593750   0.781250 0
  0.562500   0.531250 0
  0.562500   0.750000 0
  0.562500   0.718750 0
  0.562500   0.687500 0
  0.562500   0.656250 0
  0.562500   0.562500 0
  0.562500   0.593750 0
  0.562500   0.625000 0
  0.625000   0.687500 0
  0.625000   0.656250 0
  0.625000   0.593750 0
  0.625000   0.562500 0
  0.625000   0.625000 0
  0.531250   0.531250 0
  0.531250   0.750000 0
  0.531250   0.718750 0
  0.531250   0.687500 0
  0.531250   0.562500 0
  0.531250   0.625000 0
  0.531250   0.593750 0
  0.531250   0.656250 0
  0.593750   0.656250 0
  0.593750   0.593750 0
  0.593750   0.562500 0
  0.593750   0.625000 0
  0.593750   0.687500 0
  0.625000   0.750000 0
  0.593750   0.750000 0
  0.593750   0.718750 0
  0.625000   0.718750 0
  0.625000   0.531250 0
  0.593750   0.531250 0
  0.968750   0.406250 0
  0.968750   0.437500 0
  0.968750   0.468750 0
  0.968750   0.500000 0
  1.000000   0.406250 0
  1.000000   0.375000 0
  1.000000   0.437500 0
  1.000000   0.468750 0
  1.000000   0.500000 0
  0.906250   0.500000 0
  0.906250   0.406250 0
  0.906250   0.437500 0
  0.906250   0.281250 0
  0.906250   0.312500 0
  0.906250   0.343750 0
  0.906250   0.375000 0
  0.937500   0.406250 0
  0.937500   0.500000 0
  0.937500   0.468750 0
  0.937500   0.437500 0
  0.937500   0.281250 0
  0.937500   0.312500 0
  0.937500   0.343750 0
  0.937500   0.375000 0
  0.968750   0.375000 0
  1.000000   0.281250 0
  0.968750   0.281250 0
  1.000000   0.312500 0
  0.968750   0.312500 0
  0.968750   0.343750 0
  1.000000   0.343750 0
  0.968750   0.125000 0
  0.968750   0.156250 0
  0.968750   0.187500 0
  1.000000   0.000000 0
  1.000000   0.156250 0
  1.000000   0.125000 0
  1.000000   0.187500 0
  1.000000   0.218750 0
  0.531250   0.781250 0
  1.000000   0.250000 0
  0.906250   0.250000 0
  0.906250   0.218750 0
  0.937500   0.250000 0
  0.937500   0.218750 0
  0.968750   0.250000 0
  0.906250   0.031250 0
  0.906250   0.000000 0
  0.906250   0.062500 0
  0.906250   0.093750 0
  0.906250   0.125000 0
  0.937500   0.156250 0
  0.937500   0.031250 0
  0.937500   0.000000 0
  0.937500   0.062500 0
  0.937500   0.093750 0
  0.937500   0.125000 0
  1.000000   0.031250 0
  0.968750   0.031250 0
  0.968750   0.000000 0
  1.000000   0.062500 0
  0.968750   0.062500 0
  0.968750   0.093750 0
  1.000000   0.093750 0
  0.781250   0.312500 0
  0.781250   0.343750 0
  0.812500   0.500000 0
  0.812500   0.468750 0
  0.812500   0.437500 0
  0.812500   0.281250 0
  0.812500   0.312500 0
  0.812500   0.343750 0
  0.812500   0.375000 0
  0.875000   0.281250 0
  0.875000   0.406250 0
  0.875000   0.343750 0
  0.875000   0.312500 0
  0.875000   0.375000 0
  0.843750   0.281250 0
  0.843750   0.312500 0
  0.843750   0.375000 0
  0.843750   0.343750 0
  0.781250   0.500000 0
  0.781250   0.468750 0
  0.781250   0.437500 0
  0.781250   0.406250 0
  0.875000   0.500000 0
  0.843750   0.500000 0
  0.843750   0.468750 0
  0.875000   0.468750 0
  0.781250   0.281250 0
  0.843750   0.218750 0
  0.843750   0.250000 0
  0.843750   0.187500 0
  0.843750   0.156250 0
  0.875000   0.218750 0
  0.875000   0.250000 0
  0.875000   0.187500 0
  0.812500   0.062500 0
  0.812500   0.250000 0
  0.812500   0.218750 0
  0.812500   0.187500 0
  0.812500   0.156250 0
  0.812500   0.125000 0
  0.843750   0.093750 0
  0.843750   0.062500 0
  0.875000   0.125000 0
  0.875000   0.093750 0
  0.875000   0.062500 0
  0.781250   0.250000 0
  0.781250   0.218750 0
  0.781250   0.187500 0
  0.093750   0.937500 0
  0.125000   1.000000 0
  0.937500   0.718750 0
  0.250000   0.000000 0
  0.093750   0.968750 0
  0.125000   0.968750 0
  0.000000   0.718750 0
  0.000000   0.750000 0
  0.125000   0.531250 0
  0.125000   0.562500 0
  0.093750   0.531250 0
  0.031250   0.750000 0
  0.125000   0.468750 0
  0.156250   0.468750 0
  0.500000   0.375000 0
  0.156250   0.500000 0
  0.406250   0.406250 0
  0.406250   0.437500 0
  0.406250   0.500000 0
  0.406250   0.468750 0
  0.406250   0.375000 0
  0.750000   0.312500 0
  0.437500   0.406250 0
  0.437500   0.500000 0
  0.437500   0.468750 0
  0.437500   0.437500 0
  0.468750   0.437500 0
  0.468750   0.468750 0
  0.406250   0.281250 0
  0.406250   0.312500 0
  0.062500   0.375000 0
  0.406250   0.343750 0
  0.062500   0.406250 0
  0.500000   0.468750 0
  0.500000   0.500000 0
  0.437500   0.281250 0
  0.437500   0.312500 0
  0.437500   0.343750 0
  0.093750   0.406250 0
  0.437500   0.375000 0
  0.093750   0.437500 0
  0.468750   0.375000 0
  0.125000   0.437500 0
  0.500000   0.281250 0
  0.468750   0.281250 0
  0.500000   0.312500 0
  0.468750   0.312500 0
  0.468750   0.343750 0
  0.500000   0.343750 0
  0.843750   0.906250 0
  0.156250   0.187500 0
  0.468750   0.187500 0
  0.468750   0.218750 0
  0.468750   0.250000 0
  0.406250   0.031250 0
  0.750000   0.812500 0
  0.062500   0.093750 0
  0.406250   0.000000 0
  0.750000   0.781250 0
  0.062500   0.062500 0
  0.500000   0.187500 0
  0.500000   0.218750 0
  0.500000   0.250000 0
  0.437500   0.031250 0
  0.781250   0.812500 0
  0.093750   0.093750 0
  0.437500   0.000000 0
  0.437500   0.062500 0
  0.781250   0.843750 0
  0.093750   0.125000 0
  0.406250   0.187500 0
  0.406250   0.250000 0
  0.406250   0.218750 0
  0.437500   0.250000 0
  0.437500   0.218750 0
  0.437500   0.187500 0
  0.500000   0.000000 0
  0.500000   0.031250 0
  0.468750   0.031250 0
  0.468750   0.000000 0
  0.500000   0.062500 0
  0.468750   0.062500 0
  0.812500   0.843750 0
  0.125000   0.125000 0
  0.812500   0.875000 0
  0.125000   0.156250 0
  0.500000   0.093750 0
  0.843750   0.875000 0
  0.156250   0.156250 0
  1.000000   1.000000 0
  0.312500   0.281250 0
  0.656250   0.218750 0
  0.437500   0.156250 0
  0.312500   0.500000 0
  0.437500   0.125000 0
  0.312500   0.468750 0
  0.437500   0.093750 0
  0.781250   0.031250 0
  0.312500   0.437500 0
  0.312500   0.406250 0
  0.312500   0.312500 0
  0.312500   0.343750 0
  0.312500   0.375000 0
  0.375000   0.437500 0
  0.375000   0.406250 0
  0.375000   0.343750 0
  0.718750   0.281250 0
  0.375000   0.375000 0
  0.968750   1.000000 0
  0.281250   0.281250 0
  0.406250   0.156250 0
  0.281250   0.500000 0
  0.406250   0.125000 0
  0.281250   0.468750 0
[...]
CELL_DATA 1024
SCALARS scalar_value float 1
LOOKUP_TABLE default
0.0531787
0.0779478
0.0524777
0.134177
0.0101933
-0.0146854
-0.0595118
0.0362461
0.03782
0.082387
0.0288877
-0.0082131
0.00612283
-0.0350091
-0.0399073
0.0205992
0.00706744
0.0460593
-0.0165178
0.00984656
-0.0253371
-0.00407193
-0.0152302
-0.00106738
0.00423232
0.000152884
0.010589
0.0250781
0.0358832
0.06001
0.118223
-0.0702808
0.0367155
0.0149434
0.00791822
0.00798886
0.00896148
0.00876226
0.0343803
0.0116358
0.0125541
0.0114989
0.0307252
-0.00276982
0.0357167
0.0821372
-0.0213644
-0.0250743
-0.0350858
0.0358654
0.0300393
0.000528041
-0.0291763
0.0029692
-0.00083563
0.0063075
0.00997769
0.00978503
-0.0090726
0.00333854
-0.00685098
0.00997365
0.00798325
0.00106963
0.000394364
-0.00258077
-1.79515e-05
4.24236e-05
0.0430915
0.217128
0.000779694
-0.000465084
7.78192e-07
-2.32705e-05
0.283219
-0.0260718
1.16808
0.677569
0.144139
0.00189081
-0.00622292
-0.000435737
-0.000143308
0.0335448
-0.0945042
0.0203015
-0.106409
0.174516
1.95824e-05
-3.27511e-05
0.000601511
-0.00630563
0.0480939
0.378612
0.0664605
0.299456
0.0557249
0.0639354
0.146791
0.0623551
-0.00100146
0.0481197
0.00774249
0.00661071
0.082749
-0.0168479
-0.0706947
1.20334
1.41515
-0.00625594
-0.117628
-0.00329957
-0.00736894
0.043871
0.000199843
-0.00496981
0.0691425
-0.0504392
-0.152075
0.0402604
-0.0475293
0.0177093
0.0277649
0.0671968
0.0163947
0.0750993
-0.136113
0.0235258
0.479071
0.00831501
-4.9215e-05
3.75723
4.15197
3.31613
2.76213
0.849794
-0.0414796
0.000206607
0.00142099
3.25864
3.38256
1.5823
2.81
0.181841
-0.00652974
-6.10267e-05
1.89993e-05
-0.0424979
0.00812944
-0.000717442
0.861047
1.72081
0.000357204
1.89474e-05
-0.00337584
-0.00160999
0.217105
1.88477
2.54271
1.60569
4.14241
4.56279
4.3968
3.87221
4.16358
3.15656
2.49497
3.54296
4.53394
4.52247
4.37082
4.59991
4.50849
4.03311
4.64457
4.61707
1.07026
0.0716813
3.81953
3.28616
2.14041
2.78217
3.32195
2.09824
3.70819
2.12617
4.62406
4.47523
4.42778
4.32623
4.44255
4.61282
0.000729192
0.00106011
0.00210436
0.00228278
0.00604011
0.00338704
0.00297178
0.00938054
0.229531
0.520718
0.533926
0.157308
0.00106216
-0.0101095
0.000901477
-0.0162019
-0.00735527
0.0014618
0.000294306
-0.00614576
0.595477
0.000647272
3.48152
2.77167
4.15236
3.8533
0.0105829
0.51471
3.27827
2.99918
1.90547
2.91136
-0.00828525
-0.00785634
-0.0359194
0.00290188
-0.00549572
-0.0170594
-0.0177228
-0.0183006
-0.014547
-0.0421781
-0.0231713
-0.00935892
-0.016604
-0.0290183
1.24002
3.43709
4.33903
-0.0614936
0.122019
0.244089
1.75728
-0.0386197
0.00374697
0.316679
1.46209
0.75567
1.54759
1.03783
-0.0383245
0.0514335
-0.0092828
-0.0122245
0.00144901
0.00455935
1.46708e-05
7.28918e-06
7.34259e-05
0.000376806
2.4135e-05
0.000186844
3.07612e-06
-6.63386e-07
7.91383e-07
5.47215e-06
0.00267237
0.000392708
-2.60473e-06
9.93708e-07
3.60954e-05
0.00010004
9.92429e-05
0.000695569
-8.93847e-06
-1.7155e-05
3.98933e-06
1.88394e-05
1.81287e-06
4.56563e-07
5.30013e-08
-1.15842e-06
1.41109e-08
-2.7411e-08
-8.85452e-09
5.70129e-08
-1.4701e-09
1.45276e-08
1.37034e-09
-2.02822e-10
-2.17616e-06
-1.56768e-07
1.73892e-07
-9.56059e-08
3.64331e-07
1.62731e-07
-1.34693e-06
1.76906e-06
5.65955e-07
5.88298e-07
-2.66846e-08
3.97515e-08
-2.07818e-08
7.63736e-08
3.53119e-07
-1.05372e-07
6.08437e-10
8.8936e-08
-4.04131e-08
-4.25801e-07
2.02959e-07
7.42609e-09
9.09258e-09
-1.73583e-08
2.77593e-08
-2.88655e-09
2.40813e-08
-3.48626e-08
0.0233232
0.0442111
-0.0806462
-0.0356133
0.0102728
-0.000347021
-0.000476591
9.51391e-05
3.81461
4.07386
3.13547
1.45781
0.0463009
2.07877
-0.00446697
0.00516722
-1.72301e-05
-0.00556666
-0.0608002
0.00283601
0.00740697
-5.53212e-05
-8.49636e-05
0.00120885
0.00019257
0.00119846
0.000652559
0.00281956
-0.00140865
-7.20049e-06
0.000142617
-1.18082e-06
4.89115e-05
-0.000339362
0.000447239
-5.88709e-05
-4.70482e-05
1.9782e-05
-2.85534e-06
9.03953e-06
-1.13951e-07
-1.66898e-06
-0.000206213
-3.97287e-05
-3.99086e-05
-5.37512e-05
-9.11452e-06
2.5755e-06
-1.32288e-05
6.03148e-05
3.79108e-05
-1.67156e-05
-3.98847e-06
1.28069e-06
3.62206e-06
-3.12544e-07
-8.23649e-06
-2.04719e-06
5.21282e-06
-1.8064e-05
2.86958e-08
4.22272e-07
-3.59727e-07
-1.47976e-06
4.63616
4.64271
4.2136
1.76057
4.65501
4.65069
4.52012
4.27737
1.90246
4.66374
4.66361
4.60078
4.62401
4.67111
4.59112
3.50111
3.63547
4.61749
4.19624
4.6535
4.47446
3.76142
1.84229
0.0320838
0.00496047
0.0421568
4.1876
4.51144
0.933832
3.68756
2.26346
0.118222
-0.0015328
-0.00467922
0.00011456
3.43338e-05
0.000127056
-0.000378365
-0.000547985
-7.48481e-05
0.00076937
0.000570824
0.000155425
0.000855329
-0.000666645
-1.93428e-05
-0.00522388
0.00192042
0.0035838
0.0013917
-0.00696478
-0.0163988
0.00122353
0.00242827
0.00269747
3.83858e-05
-8.98924e-06
5.55648e-05
-0.000161404
-1.84941e-06
9.76526e-06
5.92163e-05
2.27576e-05
6.88597e-05
3.51947
4.33625
0.500493
2.162
4.62304
4.65726
3.83399
4.46914
2.75403
1.22743
4.62419
4.66028
4.44327
4.64914
4.47422
2.34346
4.55394
3.19247
4.64436
4.63679
2.18888
0.75334
3.5366
4.34039
1.61033
4.64458
4.0728
4.53053
4.63751
2.98741
1.50559
3.2537
0.0130728
0.00358348
0.113886
0.0113406
0.00271747
0.000851575
5.85139e-05
0.000166044
-0.000228245
4.60595e-05
0.00497831
0.000816791
-0.00698198
0.0118149
0.00240141
0.00115062
-0.00984995
-0.0138944
0.00075835
0.00220265
0.000245919
0.000151462
-6.48461e-05
0.000126363
-0.000302339
0.000155623
0.0133479
0.312359
0.0036664
0.000540846
-0.000190316
-6.98225e-05
1.01919
0.297584
3.81761
4.09807
4.14076
3.9236
4.07724
4.09836
4.06822
3.61815
0.116191
0.36705
2.20279
3.00795
1.41046
0.78374
-0.0518621
-0.0377293
-0.0194043
3.90077
0.00488547
0.00872081
-0.0385165
-0.0123515
-0.00430022
-0.00437181
3.93807
-0.00847828
-0.00167989
0.00389378
0.000861636
0.00340006
4.25212
-0.130925
0.394792
4.05915
3.97366
4.54124
4.50956
4.53342
4.51082
4.47765
4.29469
4.04722
4.03132
4.52756
4.62614
4.03721
4.29278
3.92541
3.95332
4.15982
4.03548
3.59854
4.18787
4.16906
1.98273
2.8949
0.0836036
0.23149
0.359753
-0.060746
0.165325
0.364652
0.19152
0.0191842
0.0245421
0.0311899
0.0518435
0.0317519
0.0245647
0.0279832
0.0256036
-0.00956562
0.0124649
0.0213732
0.0196883
0.0160285
0.00404444
-0.0109798
0.273681
1.04538
-0.0787362
-0.0460408
0.0601669
0.0624117
0.0346338
0.0481553
0.789521
0.390745
1.45044
2.32148
0.012013
-0.0700425
0.148232
-0.000642176
0.0163729
-0.00155767
-0.0234119
-0.0171275
-0.0273595
-0.024321
-0.0391273
-0.0318987
-0.0106838
-0.0028482
-0.00530071
-0.0194834
-0.001029
-0.00648462
-0.00206566
-0.00143195
0.0494936
0.0642622
0.0922683
0.0724087
-0.000201917
0.0222226
-0.00570318
-0.0484144
1.92
0.418146
0.703384
0.267007
0.173133
1.14331
1.79101
1.57728
1.06624
2.03009
-0.0347081
-0.0110391
-0.113451
-0.153061
0.628987
1.22864
0.068505
0.0121015
0.124065
0.0926351
1.02653
1.01222
0.273399
0.207273
-0.00735824
-0.0827675
0.0941892
-0.000158727
0.0662532
-0.00689853
-0.0286457
0.000381567
0.0172242
0.0195369
0.402128
0.00230862
0.130227
0.0280047
-0.00267744
0.00495118
-0.0051339
-0.00429041
0.000134646
-0.000270442
-0.00136271
-0.00189772
-0.0190497
-0.00973613
6.36569e-05
8.39537e-05
0.00145043
-0.0108076
-0.00650735
-0.0031818
-0.0012017
-0.000493073
-0.00171017
-0.00220216
0.00351493
-0.0024516
0.000249591
5.88027e-05
0.00296363
0.00509852
0.000216131
-4.13064e-06
-0.000217621
-0.000586845
-8.58366e-05
5.8239e-05
0.00570348
0.00266425
0.0352298
0.0561924
0.0820262
0.00733537
0.0398012
0.0621341
0.039295
0.00381707
-0.088183
-0.0611401
-0.0167537
0.111483
0.286835
0.0493094
0.152497
0.0294954
0.0175784
0.0132823
0.00736315
-0.0779228
-0.0613677
-0.0349601
-0.00945228
0.0357006
0.133429
0.0648613
0.104273
-0.0703013
-0.00942654
0.05689
0.152832
0.164058
-0.00110476
-7.07047e-05
0.069163
-0.00124559
-0.000110962
-1.02577e-05
3.25495e-05
3.883e-06
-0.000553648
8.48321e-05
-0.00114967
0.079913
-5.36934e-05
-0.000173015
2.44654e-05
6.99068e-06
0.000148165
-0.00554565
0.0521566
-0.000373919
0.000289094
2.52863e-05
2.7674e-05
-0.000187664
-0.00011423
-0.00148191
-0.0012023
-0.00130244
0.00163527
-0.00021174
-0.000579073
-0.000521488
4.7286
4.7648
-0.0215774
-0.00544252
1.26177
3.94448
4.57791
4.65697
4.66105
4.64904
0.0596129
0.00931836
3.87256
1.91402
4.54085
4.67793
3.13349
1.73714
4.66048
4.59691
4.20454
4.62532
0.241586
3.6464
4.42296
4.38812
4.77235
4.60085
4.44011
3.59737
1.06779
0.0281552
-0.0072213
0.00132044
-6.21942e-05
3.02968e-05
1.20873e-05
-0.000197664
-0.0171935
7.53072e-05
5.17399e-05
3.44287e-06
0.000103317
0.000209819
0.000369374
0.00242022
0.000396149
2.08863e-06
-3.63185e-05
0.0118086
0.00757025
9.58997e-05
-0.00056495
-0.00371469
0.000109372
0.000146016
0.00014012
0.011654
0.00160881
0.00430227
-0.000453121
-0.000281425
7.4559e-05
-8.7807e-05
0.00356236
0.00121099
-0.00436049
0.000773953
0.000815164
6.30578e-05
0.000910686
8.24028e-05
-0.000376618
-0.000579884
-0.000144237
-0.000187393
0.000110356
2.2874
2.13061
-3.10815e-06
0.000122006
-4.0365e-05
-0.162285
-0.056057
-0.157898
2.12068
1.49129
0.0212009
0.557848
-0.0023204
0.0011792
-0.0187339
-0.00177028
-0.000185844
0.0426246
0.00126461
7.5544e-05
-2.75081e-05
4.88984e-05
-4.48803e-05
8.33549e-06
-6.91447e-06
1.71019e-06
1.51118e-05
-3.58492e-05
4.0599e-07
-2.83676e-09
-1.68046e-06
3.29148e-06
-1.30892e-07
8.29795e-05
-0.000107215
3.53337e-05
0.000215037
-4.75105e-05
4.28658e-05
2.19391e-05
-1.70075e-06
1.90742e-07
-8.77083e-08
4.37073e-05
-5.56189e-05
-3.8482e-05
9.26745e-05
-2.52672e-05
-4.48049e-06
2.02194e-06
1.51818e-05
-1.08822e-06
7.15259e-08
-2.17843e-05
2.17799e-05
-0.000169591
-0.000129066
-1.30454e-05
5.28395e-06
-1.29337e-06
6.60215e-05
4.64136e-05
-7.36365e-05
-3.5441e-06
-2.39425e-05
-1.91363e-06
9.23118e-06
-3.54742e-06
2.26175e-05
3.91812e-06
1.69309e-05
2.40935e-05
1.46731e-06
4.29849e-06
1.6571e-05
1.81004e-05
8.59755e-07
5.27205e-05
8.60949e-05
3.06677e-05
-1.41202e-05
9.30387e-05
3.35543e-05
-4.84905e-09
-4.22267e-06
2.85985e-06
-5.35721e-08
2.2257e-08
-2.81285e-07
1.32768e-06
-2.1035e-06
4.04221e-06
9.73037e-07
3.2752e-07
2.94702e-08
8.84481e-08
-1.12844e-09
-1.95657e-07
1.11672e-07
-5.9128e-07
6.36034e-07
4.75991e-06
-2.21526e-07
6.18124e-07
-1.72256e-06
2.169e-07
-4.50574e-08
-4.19447e-07
3.99177e-06
-1.83051e-07
5.90247e-07
5.71134e-08
-8.34906e-09
-2.65041e-08
3.84714e-09
-9.7135e-06
-1.6603e-06
-6.39198e-06
-4.31096e-06
-1.11957e-06
2.13975e-06
6.59275e-07
-1.57075e-07
-4.24608e-07
-1.71954e-08
-6.06897e-08
5.59762e-08
5.97487e-08
2.39028e-08
-3.35709e-08
-4.52798e-08
-8.86114e-06
-2.77674e-05
4.07662e-06
8.10922e-06
3.06934e-07
-5.69431e-07
2.69414e-06
-8.31042e-08
-5.76565e-06
5.01984e-06
-7.6919e-06
7.69587e-05
6.51274e-07
3.41035e-07
-1.34401e-06
-2.93816e-06
-1.10578e-09
1.35812e-07
3.59381e-09
-8.83678e-10
-1.08965e-09
2.47155e-09
2.09258e-08
-9.61734e-10
-1.76744e-09
1.03096e-09
-1.2932e-10
0
-7.5945e-07
-1.36698e-10
5.94308e-10
0
0
2.78183e-08
-2.06903e-07
3.84548e-07
-1.87451e-07
5.14632e-07
-4.04384e-08
-2.92912e-07
-5.64535e-09
2.05625e-08
-4.24806e-08
-2.64008e-08
-2.50876e-09
-2.74567e-10
1.43728e-08
1.39089e-08
