# vtk DataFile Version 2.0
Unstructured Grid by M++
ASCII
DATASET UNSTRUCTURED_GRID
POINTS 1089 float
  0.968750   0.906250 0
  0.968750   0.937500 0
  1.000000   0.906250 0
  1.000000   0.937500 0
  1.000000   0.968750 0
  0.906250   0.906250 0
  0.906250   0.875000 0
  0.906250   0.812500 0
  0.906250   0.843750 0
  0.937500   0.906250 0
  0.937500   0.937500 0
  0.937500   0.843750 0
  0.937500   0.875000 0
  0.968750   0.875000 0
  0.968750   0.656250 0
  0.968750   0.687500 0
  1.000000   0.656250 0
  1.000000   0.625000 0
  1.000000   0.687500 0
  0.906250   0.656250 0
  0.906250   0.687500 0
  0.906250   0.625000 0
  0.906250   0.531250 0
  0.906250   0.562500 0
  0.906250   0.593750 0
  0.937500   0.656250 0
  0.937500   0.687500 0
  0.937500   0.531250 0
  0.937500   0.562500 0
  0.937500   0.593750 0
  0.937500   0.625000 0
  0.968750   0.625000 0
  0.968750   0.593750 0
  1.000000   0.593750 0
  0.968750   0.562500 0
  1.000000   0.562500 0
  1.000000   0.531250 0
  0.968750   0.531250 0
  0.781250   1.000000 0
  0.812500   0.781250 0
  0.812500   0.812500 0
  0.875000   0.843750 0
  0.875000   0.812500 0
  0.875000   0.875000 0
  0.781250   0.781250 0
  0.843750   0.843750 0
  0.843750   0.812500 0
  0.875000   0.781250 0
  0.843750   0.781250 0
  0.781250   0.750000 0
  0.781250   0.718750 0
  0.781250   0.687500 0
  0.812500   0.750000 0
  0.812500   0.718750 0
  0.812500   0.531250 0
  0.812500   0.687500 0
  0.812500   0.656250 0
  0.812500   0.562500 0
  0.812500   0.593750 0
  0.812500   0.625000 0
  0.875000   0.687500 0
  0.875000   0.656250 0
  0.875000   0.593750 0
  0.875000   0.562500 0
  0.875000   0.625000 0
  0.781250   0.531250 0
  0.781250   0.562500 0
  0.781250   0.625000 0
  0.781250   0.593750 0
  0.781250   0.656250 0
  0.843750   0.656250 0
  0.843750   0.593750 0
  0.843750   0.562500 0
  0.843750   0.625000 0
  0.843750   0.687500 0
  0.843750   0.750000 0
  0.875000   0.531250 0
  0.843750   0.531250 0
  0.656250   0.906250 0
  0.656250   0.937500 0
  0.656250   1.000000 0
  0.656250   0.968750 0
  0.687500   1.000000 0
  0.687500   0.968750 0
  0.687500   0.937500 0
  0.718750   0.937500 0
  0.718750   0.968750 0
  0.718750   1.000000 0
  0.656250   0.781250 0
  0.656250   0.812500 0
  0.656250   0.843750 0
  0.656250   0.875000 0
  0.750000   0.968750 0
  0.750000   1.000000 0
  0.750000   0.656250 0
  0.750000   0.625000 0
  0.687500   0.656250 0
  0.687500   0.687500 0
  0.687500   0.625000 0
  0.718750   0.656250 0
  0.718750   0.687500 0
  0.718750   0.718750 0
  0.656250   0.531250 0
  0.656250   0.562500 0
  0.656250   0.656250 0
  0.656250   0.687500 0
  0.656250   0.750000 0
  0.656250   0.718750 0
  0.656250   0.625000 0
  0.656250   0.593750 0
  0.750000   0.687500 0
  0.750000   0.718750 0
  0.750000   0.750000 0
  0.687500   0.531250 0
  0.687500   0.562500 0
  0.687500   0.593750 0
  0.718750   0.625000 0
  0.750000   0.531250 0
  0.718750   0.531250 0
  0.750000   0.562500 0
  0.718750   0.562500 0
  0.718750   0.593750 0
  0.750000   0.593750 0
  0.562500   1.000000 0
  0.562500   0.968750 0
  0.562500   0.937500 0
  0.562500   0.906250 0
  0.562500   0.812500 0
  0.562500   0.843750 0
  0.562500   0.875000 0
  0.625000   0.937500 0
  0.625000   0.906250 0
  0.562500   0.781250 0
  0.625000   0.875000 0
  0.531250   1.000000 0
  0.531250   0.968750 0
  0.531250   0.937500 0
  0.531250   0.812500 0
  0.531250   0.875000 0
  0.531250   0.843750 0
  0.531250   0.906250 0
  0.593750   0.906250 0
  0.593750   0.843750 0
  0.593750   0.875000 0
  0.593750   0.812500 0
  0.625000   0.843750 0
  0.625000   0.812500 0
  0.593750   0.937500 0
  0.625000   1.000000 0
  0.593750   1.000000 0
  0.593750   0.968750 0
  0.625000   0.968750 0
  0.625000   0.781250 0
  0.593750   0.781250 0
  0.562500   0.531250 0
  0.562500   0.750000 0
  0.562500   0.718750 0
  0.562500   0.687500 0
  0.562500   0.656250 0
  0.562500   0.562500 0
  0.562500   0.593750 0
  0.562500   0.625000 0
  0.625000   0.687500 0
  0.625000   0.656250 0
  0.625000   0.593750 0
  0.625000   0.562500 0
  0.625000   0.625000 0
  0.531250   0.531250 0
  0.531250   0.750000 0
  0.531250   0.718750 0
  0.531250   0.687500 0
  0.531250   0.562500 0
  0.531250   0.625000 0
  0.531250   0.593750 0
  0.531250   0.656250 0
  0.593750   0.656250 0
  0.593750   0.593750 0
  0.593750   0.562500 0
  0.593750   0.625000 0
  0.593750   0.687500 0
  0.625000   0.750000 0
  0.593750   0.750000 0
  0.593750   0.718750 0
  0.625000   0.718750 0
  0.625000   0.531250 0
  0.593750   0.531250 0
  0.968750   0.406250 0
  0.968750   0.437500 0
  0.968750   0.468750 0
  0.968750   0.500000 0
  1.000000   0.406250 0
  1.000000   0.375000 0
  1.000000   0.437500 0
  1.000000   0.468750 0
  1.000000   0.500000 0
  0.906250   0.500000 0
  0.906250   0.406250 0
  0.906250   0.437500 0
  0.906250   0.281250 0
  0.906250   0.312500 0
  0.906250   0.343750 0
  0.906250   0.375000 0
  0.937500   0.406250 0
  0.937500   0.500000 0
  0.937500   0.468750 0
  0.937500   0.437500 0
  0.937500   0.281250 0
  0.937500   0.312500 0
  0.937500   0.343750 0
  0.937500   0.375000 0
  0.968750   0.375000 0
  1.000000   0.281250 0
  0.968750   0.281250 0
  1.000000   0.312500 0
  0.968750   0.312500 0
  0.968750   0.343750 0
  1.000000   0.343750 0
  0.968750   0.125000 0
  0.968750   0.156250 0
  0.968750   0.187500 0
  1.000000   0.000000 0
  1.000000   0.156250 0
  1.000000   0.125000 0
  1.000000   0.187500 0
  1.000000   0.218750 0
  0.531250   0.781250 0
  1.000000   0.250000 0
  0.906250   0.250000 0
  0.906250   0.218750 0
  0.937500   0.250000 0
  0.937500   0.218750 0
  0.968750   0.250000 0
  0.906250   0.031250 0
  0.906250   0.000000 0
  0.906250   0.062500 0
  0.906250   0.093750 0
  0.906250   0.125000 0
  0.937500   0.156250 0
  0.937500   0.031250 0
  0.937500   0.000000 0
  0.937500   0.062500 0
  0.937500   0.093750 0
  0.937500   0.125000 0
  1.000000   0.031250 0
  0.968750   0.031250 0
  0.968750   0.000000 0
  1.000000   0.062500 0
  0.968750   0.062500 0
  0.968750   0.093750 0
  1.000000   0.093750 0
  0.781250   0.312500 0
  0.781250   0.343750 0
  0.812500   0.500000 0
  0.812500   0.468750 0
  0.812500   0.437500 0
  0.812500   0.281250 0
  0.812500   0.312500 0
  0.812500   0.343750 0
  0.812500   0.375000 0
  0.875000   0.281250 0
  0.875000   0.406250 0
  0.875000   0.343750 0
  0.875000   0.312500 0
  0.875000   0.375000 0
  0.843750   0.281250 0
  0.843750   0.312500 0
  0.843750   0.375000 0
  0.843750   0.343750 0
  0.781250   0.500000 0
  0.781250   0.468750 0
  0.781250   0.437500 0
  0.781250   0.406250 0
  0.875000   0.500000 0
  0.843750   0.500000 0
  0.843750   0.468750 0
  0.875000   0.468750 0
  0.781250   0.281250 0
  0.843750   0.218750 0
  0.843750   0.250000 0
  0.843750   0.187500 0
  0.843750   0.156250 0
  0.875000   0.218750 0
  0.875000   0.250000 0
  0.875000   0.187500 0
  0.812500   0.062500 0
  0.812500   0.250000 0
  0.812500   0.218750 0
  0.812500   0.187500 0
  0.812500   0.156250 0
  0.812500   0.125000 0
  0.843750   0.093750 0
  0.843750   0.062500 0
  0.875000   0.125000 0
  0.875000   0.093750 0
  0.875000   0.062500 0
  0.781250   0.250000 0
  0.781250   0.218750 0
  0.781250   0.187500 0
  0.093750   0.937500 0
  0.125000   1.000000 0
  0.937500   0.718750 0
  0.250000   0.000000 0
  0.093750   0.968750 0
  0.125000   0.968750 0
  0.000000   0.718750 0
  0.000000   0.750000 0
  0.125000   0.531250 0
  0.125000   0.562500 0
  0.093750   0.531250 0
  0.031250   0.750000 0
  0.125000   0.468750 0
  0.156250   0.468750 0
  0.500000   0.375000 0
  0.156250   0.500000 0
  0.406250   0.406250 0
  0.406250   0.437500 0
  0.406250   0.500000 0
  0.406250   0.468750 0
  0.406250   0.375000 0
  0.750000   0.312500 0
  0.437500   0.406250 0
  0.437500   0.500000 0
  0.437500   0.468750 0
  0.437500   0.437500 0
  0.468750   0.437500 0
  0.468750   0.468750 0
  0.406250   0.281250 0
  0.406250   0.312500 0
  0.062500   0.375000 0
  0.406250   0.343750 0
  0.062500   0.406250 0
  0.500000   0.468750 0
  0.500000   0.500000 0
  0.437500   0.281250 0
  0.437500   0.312500 0
  0.437500   0.343750 0
  0.093750   0.406250 0
  0.437500   0.375000 0
  0.093750   0.437500 0
  0.468750   0.375000 0
  0.125000   0.437500 0
  0.500000   0.281250 0
  0.468750   0.281250 0
  0.500000   0.312500 0
  0.468750   0.312500 0
  0.468750   0.343750 0
  0.500000   0.343750 0
  0.843750   0.906250 0
  0.156250   0.187500 0
  0.468750   0.187500 0
  0.468750   0.218750 0
  0.468750   0.250000 0
  0.406250   0.031250 0
  0.750000   0.812500 0
  0.062500   0.093750 0
  0.406250   0.000000 0
  0.750000   0.781250 0
  0.062500   0.062500 0
  0.500000   0.187500 0
  0.500000   0.218750 0
  0.500000   0.250000 0
  0.437500   0.031250 0
  0.781250   0.812500 0
  0.093750   0.093750 0
  0.437500   0.000000 0
  0.437500   0.062500 0
  0.781250   0.843750 0
  0.093750   0.125000 0
  0.406250   0.187500 0
  0.406250   0.250000 0
  0.406250   0.218750 0
  0.437500   0.250000 0
  0.437500   0.218750 0
  0.437500   0.187500 0
  0.500000   0.000000 0
  0.500000   0.031250 0
  0.468750   0.031250 0
  0.468750   0.000000 0
  0.500000   0.062500 0
  0.468750   0.062500 0
  0.812500   0.843750 0
  0.125000   0.125000 0
  0.812500   0.875000 0
  0.125000   0.156250 0
  0.500000   0.093750 0
  0.843750   0.875000 0
  0.156250   0.156250 0
  1.000000   1.000000 0
  0.312500   0.281250 0
  0.656250   0.218750 0
  0.437500   0.156250 0
  0.312500   0.500000 0
  0.437500   0.125000 0
  0.312500   0.468750 0
  0.437500   0.093750 0
  0.781250   0.031250 0
  0.312500   0.437500 0
  0.312500   0.406250 0
  0.312500   0.312500 0
  0.312500   0.343750 0
  0.312500   0.375000 0
  0.375000   0.437500 0
  0.375000   0.406250 0
  0.375000   0.343750 0
  0.718750   0.281250 0
  0.375000   0.375000 0
  0.968750   1.000000 0
  0.281250   0.281250 0
  0.406250   0.156250 0
  0.281250   0.500000 0
  0.406250   0.125000 0
  0.281250   0.468750 0
[...]
CELL_DATA 1024
SCALARS scalar_value float 1
LOOKUP_TABLE default
0.00882583
0.147898
-0.006734
0.0853223
0.119104
0.0763685
0.043833
0.0121716
0.0839818
0.0520399
-0.0096574
0.0461187
0.0744502
0.0209193
-0.00701603
-0.0201966
0.0189063
0.0407047
-0.0318992
0.0191577
-0.0161982
0.0167089
0.00830537
-0.0089825
-0.0144541
0.0117374
0.0554535
0.0642015
0.0681749
0.0778712
0.0132689
-0.0112333
0.0305956
-0.0001195
0.000685277
-0.00101187
0.0101488
0.00340843
0.0160914
-0.00823425
-9.96542e-05
-0.00177029
0.0131033
0.0142216
0.00430034
0.0694785
0.0327157
0.0597774
0.0283444
-0.000260252
0.0698906
0.0930691
0.0465032
-0.000357199
0.0127234
0.000576801
0.00918721
0.0037384
0.0305296
0.000339431
0.0233777
0.0115543
0.00314655
-0.00011563
-0.00346722
0.061283
3.25822e-05
0.000654818
0.276731
0.418186
-0.00217322
-0.00114123
0.00109398
-4.57988e-05
0.662021
0.19936
0.128326
0.153782
0.0531797
0.00129608
-0.103602
-0.00319104
0.0023579
0.0444072
-0.012153
-0.0342295
-0.0241952
0.0201392
0.00100219
0.000151471
-0.0196733
0.0156994
0.233514
-0.123523
0.0171387
0.0324558
-0.0636928
-0.0160523
0.0981923
0.018039
0.0333295
-0.0497737
-0.0273886
0.0700542
-0.00788515
-0.0847977
-0.0903519
0.0469077
-0.0531429
-0.00681671
-0.109331
0.000484004
0.00106215
0.0425331
-0.0397274
0.020148
0.0190615
0.0786309
0.0381165
0.00885884
-0.00157776
0.00761459
0.0195187
0.00454303
0.00458538
-0.0181156
-0.0470927
0.00694853
0.0760872
0.248201
-0.0199203
2.62901
3.25049
2.49626
3.06688
2.84413
1.96705
0.00421104
-0.00839745
0.393018
0.586388
2.38432
1.35657
1.5677
0.426586
-0.000702268
2.00701e-05
0.591918
-0.0556064
0.0100051
0.919188
-0.0218729
0.000269804
-0.000218451
0.0688842
0.00522472
1.36923
1.0144
-0.144613
-0.0311837
1.50595
4.65425
4.21115
4.50534
4.58926
4.19258
3.88155
4.4087
4.62923
3.68584
4.60947
4.65095
4.29127
4.51662
3.93466
4.28137
0.036041
0.0480401
0.14838
0.397534
0.0131937
-0.188216
2.07441
0.0722087
0.513511
-0.0376371
2.32189
2.42884
1.57029
2.38766
3.9532
4.63714
2.57069
0.335602
1.40549
0.180022
0.363469
0.0079045
-0.0148631
3.2303
3.59725
3.6936
3.38832
1.84093
-0.0157468
0.256193
0.396064
0.0282917
-0.060942
2.15338
0.797514
2.19061
3.17455
0.175036
3.89354
3.59483
4.49788
4.2612
3.25916
3.66065
4.40953
4.55371
3.91701
4.19658
-0.00318061
-0.0224487
0.244716
-0.0407739
-0.0231483
-0.0454477
-0.0538016
-0.0373861
-0.0118799
-0.0988023
-0.0715285
-0.0338042
-0.0408375
0.047478
3.27304
4.53393
4.59702
-0.0776674
0.393613
1.51123
3.95746
0.141369
0.287064
2.18427
3.27626
2.64592
3.28037
2.42555
0.195993
0.36889
0.408876
0.475906
-0.00144399
-0.00205848
2.71944e-06
4.04728e-06
-2.14465e-05
-0.000376424
-1.44064e-05
-7.1856e-05
-2.44644e-07
-1.5341e-07
-6.70969e-08
-1.25675e-06
-0.00112291
-0.0003432
5.9618e-07
1.01083e-06
-3.26269e-06
-5.21059e-05
-6.88745e-05
-0.00028505
-3.72457e-06
-3.53367e-06
-1.03762e-06
-7.45966e-06
-2.69547e-09
-3.61966e-08
3.58247e-08
2.36234e-08
4.26217e-09
2.7496e-08
-6.67445e-08
-1.53418e-08
-2.13023e-10
1.99623e-09
3.1959e-10
0
-1.6515e-07
-1.80434e-07
-1.28024e-07
4.56587e-08
1.78985e-07
1.38685e-07
9.79035e-08
-5.28954e-07
3.55504e-07
2.64388e-07
-3.277e-09
-1.47165e-08
1.08476e-08
3.64197e-08
-1.86775e-08
2.72647e-09
-3.13489e-08
3.11926e-09
-3.11025e-09
-2.30426e-08
4.10417e-08
-4.0167e-10
2.02042e-09
-3.96535e-09
3.7679e-09
-7.79494e-10
-1.486e-08
3.78325e-09
-0.0608746
-0.0081199
0.0388581
-0.0357053
-0.000231162
0.000135488
-0.000355743
-0.000490255
3.50862
1.99326
1.97352
0.412929
-0.00843767
0.030559
0.00635241
-0.000946861
1.36959e-05
-0.0154429
0.00225528
-0.0114904
-0.000981691
9.80493e-05
-5.1535e-05
-0.000116119
-8.49076e-05
-0.00232649
-0.000137856
-0.00524229
-0.000747176
-2.27913e-06
-6.80225e-06
-1.68749e-05
-9.44941e-05
-0.000127567
-0.00142686
-2.52414e-05
-1.43273e-05
-6.73903e-06
1.32523e-05
-5.64347e-06
-1.39589e-06
-4.28262e-06
-8.84364e-05
-2.40463e-05
-4.39844e-06
-2.68931e-05
-8.26012e-06
3.99691e-06
6.74947e-06
6.45751e-08
-3.54632e-06
2.21448e-06
-1.57733e-06
3.88887e-07
-3.90775e-06
2.6729e-06
2.1839e-06
-3.19944e-06
-1.5287e-06
-3.23103e-06
2.56735e-08
1.02685e-07
1.61675e-07
-2.84046e-07
4.40437
4.62078
2.91845
0.131806
4.55096
4.67015
4.17665
3.07976
0.254764
4.6956
4.60027
4.63984
4.60305
4.6674
4.63133
4.02481
4.29988
4.64929
4.42653
4.46017
3.58707
1.47563
-0.0472686
0.0423004
-0.000589922
0.0199555
3.20102
3.99403
0.23591
2.06098
1.09027
0.000314395
-0.00166311
-0.00138802
-0.000309296
-0.00010196
-0.000529436
1.05758e-05
0.000573633
-0.000916615
0.000856571
-0.00059147
-0.000133527
-0.00102889
-0.000511879
0.0098992
0.00133379
-0.00139021
-0.00370958
-0.00134799
0.00453102
0.0126547
-0.00151778
-0.0018841
-0.00130974
-0.000118766
-0.000223076
-0.000349997
-0.000183932
-4.4418e-06
-2.07752e-06
-0.000399323
2.23184e-05
3.43562e-05
3.81877
4.45807
0.9737
2.64114
4.63461
4.6624
4.05585
4.53757
3.14861
1.76816
4.65195
4.66169
3.60802
4.64514
3.82396
0.616044
4.16388
1.39546
4.66011
4.63539
2.78147
1.50238
3.87416
4.47563
0.357472
4.6449
4.369
4.61994
4.48064
3.50244
2.40151
1.57029
-0.00731094
-0.00210689
-0.0157495
-0.0117818
-0.00103415
-4.77729e-05
3.54284e-05
-2.09098e-05
-0.000541205
-0.00174144
-0.00620828
-0.00420251
0.00465042
0.00963187
-0.00331035
0.000190457
0.0116801
0.0154388
-0.000288145
-0.00113447
-3.35589e-05
-5.61011e-05
-0.000571609
-0.000217642
-7.07822e-05
-0.000524326
-0.00604363
-0.0139304
-0.00056768
0.000771314
-4.13528e-06
-6.87695e-05
3.21283
2.45904
2.25198
3.17024
3.30889
2.50279
2.8867
3.11352
3.13272
4.44842
1.87998
2.23121
3.88344
4.25537
3.33269
2.72143
-0.254922
-0.0644955
-0.228086
2.35107
0.236778
0.0163465
0.804105
1.62028
-0.00927065
-0.00265027
4.5246
-0.139518
-0.0639847
-0.0260317
-0.00243541
-0.00890669
4.39268
0.0776488
1.11515
2.78377
2.57007
3.83155
4.39258
3.42129
3.22564
3.12629
3.02464
4.5258
4.45421
4.67057
4.67751
4.58141
4.62227
4.4768
4.39996
4.32859
4.61072
4.54748
4.49193
4.34299
3.79984
4.25637
-0.016303
0.216425
0.435597
-0.184119
0.349817
0.546175
-0.00713868
-0.0131407
-0.0208703
-0.00419084
-0.00880809
-0.0306766
-0.0273243
-0.000576738
0.0230876
0.00588272
0.00195953
0.00129843
0.0064712
-0.00219239
0.015103
0.0124784
-0.0691671
-0.0763263
-0.0607725
-0.0514907
-0.0885251
-0.0558058
-0.0528036
-0.0719218
-0.161734
-0.125761
-0.175876
-0.17877
-0.0665631
-0.0242381
-0.079594
-0.0379166
0.0143314
0.000972666
0.00393249
0.00679934
0.0028438
-0.0046985
-0.00676337
-0.00430688
0.00204317
0.00352303
0.00104324
0.00310571
0.0021669
0.0035509
-8.83075e-05
-0.000445733
0.00951917
0.0191919
9.5106e-05
-0.0122835
0.0181163
0.0308896
-0.0151236
-0.00511441
0.302056
0.0766061
0.0968127
-0.00964153
-0.0788779
0.0717163
0.123323
0.0678551
0.00681021
0.0220127
-0.00760072
-0.00476714
-0.00237062
-0.00989015
-0.0215936
-0.0840462
-0.0195146
-0.00838377
-0.0151616
0.00197389
-0.104828
0.324874
0.094425
0.347057
-0.15188
0.109484
-0.00668106
-0.0505603
-0.156394
-0.00265095
0.00229468
-0.00259255
-0.00268972
-0.0025126
0.00120891
0.00588575
0.00394815
0.00667019
0.00812827
-0.00113014
-0.000939116
-0.00180532
-4.78126e-05
-0.00015255
-0.000327698
-0.000552287
0.00130202
-0.00283413
-6.17342e-05
1.07124e-05
0.00220183
0.00261414
-0.00224996
-0.000849962
-0.000583546
-0.000329132
-0.000710875
-0.000607022
0.000750215
0.000151279
2.1663e-05
2.0068e-05
-9.06176e-05
0.000320443
-0.000582461
-4.97264e-05
-0.000370736
-0.000734044
-0.000151749
-0.000291636
0.00179105
0.000503811
0.0579709
0.0437287
0.0447306
0.0375655
0.161232
0.107383
-0.00945754
-0.0244412
0.284525
-0.0203523
-0.0204478
0.110031
0.106805
0.380272
-0.0208989
-0.0160536
-0.00291074
0.0165473
0.0286167
-0.0190973
-0.0752866
-0.00863894
0.00116023
-0.00251339
-0.000577237
0.00165071
0.139775
0.224945
0.15007
0.104319
-0.0703659
-0.00292974
-8.74669e-05
1.69893e-06
0.000716711
-0.000399261
-2.49223e-05
-3.42648e-06
7.44131e-06
1.92584e-06
-3.00035e-05
0.000118984
-0.00104532
-0.0043947
1.58913e-05
1.07611e-05
1.45314e-05
3.10235e-06
1.99173e-05
-0.000812252
-0.000595696
5.11634e-05
9.33022e-05
-2.44444e-06
5.78507e-07
-7.79954e-05
-1.96185e-05
-0.000131871
-0.000153638
-0.000641672
-0.00144322
-4.83026e-06
-0.000191669
-7.91377e-05
4.64694
4.581
-0.000383001
0.00136309
0.0158756
1.8031
4.02336
4.48892
4.61394
4.63661
0.0427632
-0.00895517
1.76428
-0.0206678
3.83254
4.46605
3.65221
2.46686
4.63364
4.63817
4.39303
4.65521
-0.0350344
1.97922
4.62169
4.3695
4.48262
4.74657
4.08949
2.0573
0.177678
-0.0273921
0.00149439
-0.0026951
8.5249e-05
-4.116e-05
-2.91503e-05
0.000165468
0.0151838
-9.41131e-05
-4.47266e-05
1.80053e-05
0.000110865
-0.000161426
0.000375241
-0.00135765
-0.00166259
0.00414318
-3.47116e-05
-0.0108714
-0.0105966
-0.000150074
0.000569763
0.00265518
-0.000187095
-0.000161885
-0.000117752
-0.00853511
-0.00171818
-0.00168489
0.000230804
0.000223435
-9.09598e-05
6.84404e-05
-0.00126917
-0.000969494
-0.000340262
-0.00104838
0.000200396
3.82631e-05
0.000210552
-1.29288e-05
-6.45567e-06
0.000192614
0.000153417
-5.15179e-05
-0.000122572
1.02686
0.666684
-6.0537e-05
3.33643e-05
7.00803e-05
0.0252663
0.0244115
0.0465503
0.998344
0.551023
-0.00243859
0.0790672
-0.00149465
-0.00118943
0.0576036
-0.000252697
-9.19836e-05
0.0148467
-0.000327153
5.78306e-06
3.79985e-06
8.73129e-05
-6.41562e-05
-1.01069e-06
2.46229e-06
1.10289e-06
3.68717e-06
-1.37701e-05
6.65806e-07
-8.98821e-07
1.44098e-06
-4.03446e-07
-3.53659e-08
1.16181e-05
0.000104665
0.000102031
2.46805e-05
6.24036e-05
4.50287e-08
-4.05363e-05
1.15404e-05
-2.96701e-07
-2.11009e-09
5.37917e-05
-0.000133221
-1.82673e-05
7.46695e-06
1.30542e-05
8.53203e-06
-8.86186e-07
-2.17422e-05
6.41002e-07
2.24421e-06
-1.86764e-05
-9.52286e-06
-1.46733e-05
-8.36662e-06
-1.3091e-06
2.0945e-06
-1.24728e-06
4.09842e-06
4.62184e-06
-3.85057e-06
2.23999e-06
-8.81011e-07
1.49316e-07
6.53961e-07
-3.24231e-07
1.70323e-06
1.35795e-06
5.5774e-06
1.28216e-05
-1.47125e-06
-1.45074e-06
2.1765e-05
1.64634e-05
6.07747e-07
1.55513e-05
-5.41016e-05
-4.19573e-05
2.32575e-05
4.77452e-05
2.5078e-05
8.63499e-09
-2.0967e-06
-6.76405e-08
-2.27691e-08
1.37068e-08
-8.21838e-08
2.67192e-07
-4.65858e-07
9.47359e-07
-1.52518e-07
-1.82082e-08
9.80646e-10
3.32898e-09
-5.65194e-09
3.57114e-09
-3.68094e-08
4.26992e-08
1.21431e-07
6.13307e-06
2.35527e-07
-1.5502e-07
1.79415e-06
-1.29605e-07
-3.66186e-09
5.36722e-07
3.77281e-07
5.30628e-08
-3.61984e-08
1.66207e-08
-8.79993e-09
7.4801e-09
4.79932e-10
-1.35255e-06
-1.81084e-07
-3.57048e-07
-5.55608e-07
-4.93993e-08
2.4654e-07
5.24576e-08
-5.87248e-08
-2.03684e-08
1.23032e-08
-1.06251e-07
-2.15281e-08
-1.06372e-08
-2.57998e-09
-6.75602e-09
6.47675e-10
3.87175e-07
-1.14921e-06
1.41339e-07
7.00363e-08
-6.612e-08
3.73411e-09
1.63963e-07
-7.84582e-08
-7.98656e-07
1.57415e-07
-1.99046e-06
4.30537e-06
2.37547e-07
6.9204e-07
-7.99922e-08
2.32654e-07
3.82797e-09
-3.65979e-10
-7.74751e-09
0
0
-1.64033e-09
2.27512e-09
-7.86517e-10
2.02057e-10
0
-1.61462e-10
0
-3.819e-07
0
2.31412e-10
0
0
4.38923e-09
-2.53818e-08
1.36184e-07
-6.84568e-08
1.97384e-07
1.47565e-08
7.89125e-09
3.02822e-10
1.20568e-08
2.43105e-08
-1.52982e-08
-2.65375e-09
1.86712e-10
-2.60629e-09
1.72482e-09
