# vtk DataFile Version 2.0
Unstructured Grid by M++
ASCII
DATASET UNSTRUCTURED_GRID
POINTS 1089 float
  0.968750   0.906250 0
  0.968750   0.937500 0
  1.000000   0.906250 0
  1.000000   0.937500 0
  1.000000   0.968750 0
  0.906250   0.906250 0
  0.906250   0.875000 0
  0.906250   0.812500 0
  0.906250   0.843750 0
  0.937500   0.906250 0
  0.937500   0.937500 0
  0.937500   0.843750 0
  0.937500   0.875000 0
  0.968750   0.875000 0
  0.968750   0.656250 0
  0.968750   0.687500 0
  1.000000   0.656250 0
  1.000000   0.625000 0
  1.000000   0.687500 0
  0.906250   0.656250 0
  0.906250   0.687500 0
  0.906250   0.625000 0
  0.906250   0.531250 0
  0.906250   0.562500 0
  0.906250   0.593750 0
  0.937500   0.656250 0
  0.937500   0.687500 0
  0.937500   0.531250 0
  0.937500   0.562500 0
  0.937500   0.593750 0
  0.937500   0.625000 0
  0.968750   0.625000 0
  0.968750   0.593750 0
  1.000000   0.593750 0
  0.968750   0.562500 0
  1.000000   0.562500 0
  1.000000   0.531250 0
  0.968750   0.531250 0
  0.781250   1.000000 0
  0.812500   0.781250 0
  0.812500   0.812500 0
  0.875000   0.843750 0
  0.875000   0.812500 0
  0.875000   0.875000 0
  0.781250   0.781250 0
  0.843750   0.843750 0
  0.843750   0.812500 0
  0.875000   0.781250 0
  0.843750   0.781250 0
  0.781250   0.750000 0
  0.781250   0.718750 0
  0.781250   0.687500 0
  0.812500   0.750000 0
  0.812500   0.718750 0
  0.812500   0.531250 0
  0.812500   0.687500 0
  0.812500   0.656250 0
  0.812500   0.562500 0
  0.812500   0.593750 0
  0.812500   0.625000 0
  0.875000   0.687500 0
  0.875000   0.656250 0
  0.875000   0.593750 0
  0.875000   0.562500 0
  0.875000   0.625000 0
  0.781250   0.531250 0
  0.781250   0.562500 0
  0.781250   0.625000 0
  0.781250   0.593750 0
  0.781250   0.656250 0
  0.843750   0.656250 0
  0.843750   0.593750 0
  0.843750   0.562500 0
  0.843750   0.625000 0
  0.843750   0.687500 0
  0.843750   0.750000 0
  0.875000   0.531250 0
  0.843750   0.531250 0
  0.656250   0.906250 0
  0.656250   0.937500 0
  0.656250   1.000000 0
  0.656250   0.968750 0
  0.687500   1.000000 0
  0.687500   0.968750 0
  0.687500   0.937500 0
  0.718750   0.937500 0
  0.718750   0.968750 0
  0.718750   1.000000 0
  0.656250   0.781250 0
  0.656250   0.812500 0
  0.656250   0.843750 0
  0.656250   0.875000 0
  0.750000   0.968750 0
  0.750000   1.000000 0
  0.750000   0.656250 0
  0.750000   0.625000 0
  0.687500   0.656250 0
  0.687500   0.687500 0
  0.687500   0.625000 0
  0.718750   0.656250 0
  0.718750   0.687500 0
  0.718750   0.718750 0
  0.656250   0.531250 0
  0.656250   0.562500 0
  0.656250   0.656250 0
  0.656250   0.687500 0
  0.656250   0.750000 0
  0.656250   0.718750 0
  0.656250   0.625000 0
  0.656250   0.593750 0
  0.750000   0.687500 0
  0.750000   0.718750 0
  0.750000   0.750000 0
  0.687500   0.531250 0
  0.687500   0.562500 0
  0.687500   0.593750 0
  0.718750   0.625000 0
  0.750000   0.531250 0
  0.718750   0.531250 0
  0.750000   0.562500 0
  0.718750   0.562500 0
  0.718750   0.593750 0
  0.750000   0.593750 0
  0.562500   1.000000 0
  0.562500   0.968750 0
  0.562500   0.937500 0
  0.562500   0.906250 0
  0.562500   0.812500 0
  0.562500   0.843750 0
  0.562500   0.875000 0
  0.625000   0.937500 0
  0.625000   0.906250 0
  0.562500   0.781250 0
  0.625000   0.875000 0
  0.531250   1.000000 0
  0.531250   0.968750 0
  0.531250   0.937500 0
  0.531250   0.812500 0
  0.531250   0.875000 0
  0.531250   0.843750 0
  0.531250   0.906250 0
  0.593750   0.906250 0
  0.593750   0.843750 0
  0.593750   0.875000 0
  0.593750   0.812500 0
  0.625000   0.843750 0
  0.625000   0.812500 0
  0.593750   0.937500 0
  0.625000   1.000000 0
  0.593750   1.000000 0
  0.593750   0.968750 0
  0.625000   0.968750 0
  0.625000   0.781250 0
  0.593750   0.781250 0
  0.562500   0.531250 0
  0.562500   0.750000 0
  0.562500   0.718750 0
  0.562500   0.687500 0
  0.562500   0.656250 0
  0.562500   0.562500 0
  0.562500   0.593750 0
  0.562500   0.625000 0
  0.625000   0.687500 0
  0.625000   0.656250 0
  0.625000   0.593750 0
  0.625000   0.562500 0
  0.625000   0.625000 0
  0.531250   0.531250 0
  0.531250   0.750000 0
  0.531250   0.718750 0
  0.531250   0.687500 0
  0.531250   0.562500 0
  0.531250   0.625000 0
  0.531250   0.593750 0
  0.531250   0.656250 0
  0.593750   0.656250 0
  0.593750   0.593750 0
  0.593750   0.562500 0
  0.593750   0.625000 0
  0.593750   0.687500 0
  0.625000   0.750000 0
  0.593750   0.750000 0
  0.593750   0.718750 0
  0.625000   0.718750 0
  0.625000   0.531250 0
  0.593750   0.531250 0
  0.968750   0.406250 0
  0.968750   0.437500 0
  0.968750   0.468750 0
  0.968750   0.500000 0
  1.000000   0.406250 0
  1.000000   0.375000 0
  1.000000   0.437500 0
  1.000000   0.468750 0
  1.000000   0.500000 0
  0.906250   0.500000 0
  0.906250   0.406250 0
  0.906250   0.437500 0
  0.906250   0.281250 0
  0.906250   0.312500 0
  0.906250   0.343750 0
  0.906250   0.375000 0
  0.937500   0.406250 0
  0.937500   0.500000 0
  0.937500   0.468750 0
  0.937500   0.437500 0
  0.937500   0.281250 0
  0.937500   0.312500 0
  0.937500   0.343750 0
  0.937500   0.375000 0
  0.968750   0.375000 0
  1.000000   0.281250 0
  0.968750   0.281250 0
  1.000000   0.312500 0
  0.968750   0.312500 0
  0.968750   0.343750 0
  1.000000   0.343750 0
  0.968750   0.125000 0
  0.968750   0.156250 0
  0.968750   0.187500 0
  1.000000   0.000000 0
  1.000000   0.156250 0
  1.000000   0.125000 0
  1.000000   0.187500 0
  1.000000   0.218750 0
  0.531250   0.781250 0
  1.000000   0.250000 0
  0.906250   0.250000 0
  0.906250   0.218750 0
  0.937500   0.250000 0
  0.937500   0.218750 0
  0.968750   0.250000 0
  0.906250   0.031250 0
  0.906250   0.000000 0
  0.906250   0.062500 0
  0.906250   0.093750 0
  0.906250   0.125000 0
  0.937500   0.156250 0
  0.937500   0.031250 0
  0.937500   0.000000 0
  0.937500   0.062500 0
  0.937500   0.093750 0
  0.937500   0.125000 0
  1.000000   0.031250 0
  0.968750   0.031250 0
  0.968750   0.000000 0
  1.000000   0.062500 0
  0.968750   0.062500 0
  0.968750   0.093750 0
  1.000000   0.093750 0
  0.781250   0.312500 0
  0.781250   0.343750 0
  0.812500   0.500000 0
  0.812500   0.468750 0
  0.812500   0.437500 0
  0.812500   0.281250 0
  0.812500   0.312500 0
  0.812500   0.343750 0
  0.812500   0.375000 0
  0.875000   0.281250 0
  0.875000   0.406250 0
  0.875000   0.343750 0
  0.875000   0.312500 0
  0.875000   0.375000 0
  0.843750   0.281250 0
  0.843750   0.312500 0
  0.843750   0.375000 0
  0.843750   0.343750 0
  0.781250   0.500000 0
  0.781250   0.468750 0
  0.781250   0.437500 0
  0.781250   0.406250 0
  0.875000   0.500000 0
  0.843750   0.500000 0
  0.843750   0.468750 0
  0.875000   0.468750 0
  0.781250   0.281250 0
  0.843750   0.218750 0
  0.843750   0.250000 0
  0.843750   0.187500 0
  0.843750   0.156250 0
  0.875000   0.218750 0
  0.875000   0.250000 0
  0.875000   0.187500 0
  0.812500   0.062500 0
  0.812500   0.250000 0
  0.812500   0.218750 0
  0.812500   0.187500 0
  0.812500   0.156250 0
  0.812500   0.125000 0
  0.843750   0.093750 0
  0.843750   0.062500 0
  0.875000   0.125000 0
  0.875000   0.093750 0
  0.875000   0.062500 0
  0.781250   0.250000 0
  0.781250   0.218750 0
  0.781250   0.187500 0
  0.093750   0.937500 0
  0.125000   1.000000 0
  0.937500   0.718750 0
  0.250000   0.000000 0
  0.093750   0.968750 0
  0.125000   0.968750 0
  0.000000   0.718750 0
  0.000000   0.750000 0
  0.125000   0.531250 0
  0.125000   0.562500 0
  0.093750   0.531250 0
  0.031250   0.750000 0
  0.125000   0.468750 0
  0.156250   0.468750 0
  0.500000   0.375000 0
  0.156250   0.500000 0
  0.406250   0.406250 0
  0.406250   0.437500 0
  0.406250   0.500000 0
  0.406250   0.468750 0
  0.406250   0.375000 0
  0.750000   0.312500 0
  0.437500   0.406250 0
  0.437500   0.500000 0
  0.437500   0.468750 0
  0.437500   0.437500 0
  0.468750   0.437500 0
  0.468750   0.468750 0
  0.406250   0.281250 0
  0.406250   0.312500 0
  0.062500   0.375000 0
  0.406250   0.343750 0
  0.062500   0.406250 0
  0.500000   0.468750 0
  0.500000   0.500000 0
  0.437500   0.281250 0
  0.437500   0.312500 0
  0.437500   0.343750 0
  0.093750   0.406250 0
  0.437500   0.375000 0
  0.093750   0.437500 0
  0.468750   0.375000 0
  0.125000   0.437500 0
  0.500000   0.281250 0
  0.468750   0.281250 0
  0.500000   0.312500 0
  0.468750   0.312500 0
  0.468750   0.343750 0
  0.500000   0.343750 0
  0.843750   0.906250 0
  0.156250   0.187500 0
  0.468750   0.187500 0
  0.468750   0.218750 0
  0.468750   0.250000 0
  0.406250   0.031250 0
  0.750000   0.812500 0
  0.062500   0.093750 0
  0.406250   0.000000 0
  0.750000   0.781250 0
  0.062500   0.062500 0
  0.500000   0.187500 0
  0.500000   0.218750 0
  0.500000   0.250000 0
  0.437500   0.031250 0
  0.781250   0.812500 0
  0.093750   0.093750 0
  0.437500   0.000000 0
  0.437500   0.062500 0
  0.781250   0.843750 0
  0.093750   0.125000 0
  0.406250   0.187500 0
  0.406250   0.250000 0
  0.406250   0.218750 0
  0.437500   0.250000 0
  0.437500   0.218750 0
  0.437500   0.187500 0
  0.500000   0.000000 0
  0.500000   0.031250 0
  0.468750   0.031250 0
  0.468750   0.000000 0
  0.500000   0.062500 0
  0.468750   0.062500 0
  0.812500   0.843750 0
  0.125000   0.125000 0
  0.812500   0.875000 0
  0.125000   0.156250 0
  0.500000   0.093750 0
  0.843750   0.875000 0
  0.156250   0.156250 0
  1.000000   1.000000 0
  0.312500   0.281250 0
  0.656250   0.218750 0
  0.437500   0.156250 0
  0.312500   0.500000 0
  0.437500   0.125000 0
  0.312500   0.468750 0
  0.437500   0.093750 0
  0.781250   0.031250 0
  0.312500   0.437500 0
  0.312500   0.406250 0
  0.312500   0.312500 0
  0.312500   0.343750 0
  0.312500   0.375000 0
  0.375000   0.437500 0
  0.375000   0.406250 0
  0.375000   0.343750 0
  0.718750   0.281250 0
  0.375000   0.375000 0
  0.968750   1.000000 0
  0.281250   0.281250 0
  0.406250   0.156250 0
  0.281250   0.500000 0
  0.406250   0.125000 0
  0.281250   0.468750 0
[...]
CELL_DATA 1024
SCALARS scalar_value float 1
LOOKUP_TABLE default
0.0112353
0.173379
0.0146487
0.0764793
0.0880535
0.0831937
0.0258808
0.0133395
0.0965105
0.0492953
0.00457979
0.045617
0.0599497
0.0123887
-0.00837106
-0.0310388
0.0225616
0.0497476
-0.0137489
0.00759804
-0.0125166
0.0148149
0.00698586
-0.0109535
-0.00327224
0.00825704
0.0507455
0.0688826
0.0648905
0.0791674
0.0232011
-0.0119118
0.0258015
-0.0106426
0.00140001
-0.000402798
0.0117439
0.00441891
0.0128619
-0.0159685
0.000733771
-0.000887714
0.0165835
0.0140297
-0.020522
0.0570479
0.0337548
0.0582386
0.0371777
-0.0104942
0.0775548
0.0931045
0.0479506
-0.00012233
0.0129699
0.00109504
0.0105247
0.00483722
0.0299775
0.000606993
0.0240717
0.013261
0.00400847
-3.07624e-05
-0.0029886
0.0503832
7.20156e-05
0.000361569
0.243572
0.460835
-0.00229502
1.2938e-05
0.000794043
3.11326e-05
0.716216
0.149676
0.126855
0.159489
0.0685848
0.00378676
-0.101091
-0.00210036
0.00166775
0.0331321
-0.0187656
-0.0400516
-0.0247852
0.0481007
0.000393875
0.000216598
-0.0136493
0.00241279
0.23501
-0.109153
-0.00324996
0.0822907
-0.0760288
-0.010118
0.0789553
-0.0118892
0.0311468
-0.0520659
-0.0309458
0.087962
-0.0207616
-0.0712892
-0.0808158
0.0564341
-0.0454239
-0.0199065
-0.128868
0.000489997
0.000377047
0.0460986
-0.0438855
0.0322427
0.0554584
0.0805204
0.0322216
0.0137437
-0.0057504
0.00973006
0.0233306
-0.00376623
0.00465507
-0.0419381
-0.0447297
0.00974755
0.0748719
0.111947
-0.00134298
2.8736
3.47877
2.73374
3.15353
2.7897
1.7698
0.00574425
-0.0137852
0.610956
0.792152
2.43782
1.67617
1.46545
0.345199
-0.000597617
-2.41906e-05
0.502027
-0.0530481
0.00908395
1.03998
-0.00858734
-0.000936303
-8.30534e-05
0.0308886
0.0101517
1.29244
1.23535
-0.0896641
-0.0800004
1.84155
4.65367
4.2979
4.4781
4.57742
4.131
3.80262
4.37837
4.64367
3.87999
4.60198
4.64996
4.35956
4.49464
4.09129
4.40244
-0.0117986
0.0783497
0.294201
0.586053
0.0401847
-0.166261
2.1449
0.133777
0.680044
0.0140976
2.70226
2.68321
1.90881
2.572
4.01717
4.64145
2.20786
0.165227
1.02022
0.0895367
0.244236
-0.0177191
-0.00320168
2.9849
3.37858
3.50518
3.17887
1.68615
-0.00515201
0.186185
0.286344
0.000641555
-0.0578111
1.80204
0.510217
1.88965
3.1395
0.0616037
3.90069
3.57537
4.49701
4.28006
3.10424
3.61527
4.38139
4.52291
3.87502
4.15685
-0.00196872
-0.0196505
0.19465
-0.0365586
-0.019398
-0.0425884
-0.0499939
-0.0362046
-0.0111932
-0.0935633
-0.066761
-0.0288835
-0.0374766
0.0341739
3.13333
4.50487
4.58612
-0.078493
0.364669
1.37933
3.84459
0.0824108
0.219531
2.01551
3.15141
2.4967
3.15425
2.30893
0.152292
0.326372
0.332305
0.396902
-0.0012899
-0.0016082
4.30983e-06
1.49296e-06
-2.62991e-05
-0.000365528
-1.29113e-05
-5.44346e-05
3.00061e-07
-3.49915e-07
1.58392e-08
-1.12503e-06
-0.000867668
-0.000304291
1.00839e-07
1.12833e-06
-2.64552e-06
-4.91223e-05
-6.22613e-05
-0.000218887
-1.32244e-06
-3.98443e-06
-7.31429e-07
-6.28881e-06
-2.62201e-07
1.80414e-08
2.0411e-09
8.92973e-08
1.92355e-08
1.82329e-08
-4.16377e-08
-4.17291e-08
-3.26794e-10
2.55121e-09
2.58014e-10
0
-1.83636e-07
-8.80698e-07
-8.18983e-08
4.45121e-08
9.73046e-08
2.54956e-07
-1.51382e-07
-3.488e-07
2.54628e-07
3.08202e-07
-1.59499e-10
2.30176e-09
0
1.33733e-08
5.98451e-08
-1.29946e-08
-1.53033e-08
1.01181e-08
-5.58727e-09
-5.69952e-08
5.04509e-08
-4.81637e-10
1.67854e-09
-5.11069e-09
7.72421e-09
-4.30114e-10
-1.48012e-08
-2.46614e-09
-0.0601377
-0.00832917
0.0306208
-0.0354919
-0.00036914
6.90659e-05
-0.000149989
-0.000518946
3.55083
2.25733
2.04009
0.49866
-0.00333037
0.0691158
0.00611729
-0.00217847
1.30817e-05
-0.0150382
-0.00254068
-0.0115709
-0.000908735
9.03678e-05
-2.44632e-05
-0.00010334
-0.000128703
-0.00228132
-0.000143386
-0.0047864
-0.000932916
-8.51607e-06
-1.03655e-05
-1.79996e-05
-0.000141782
-0.000141014
-0.0016874
-2.14819e-05
-1.62945e-05
-1.73477e-05
9.55323e-06
-5.83065e-06
-1.8211e-06
-3.07624e-06
-8.88107e-05
-1.25188e-05
3.13021e-06
-1.93164e-05
-7.1772e-06
2.72597e-06
7.23288e-06
-1.68234e-05
-8.07217e-06
4.3632e-06
-4.53996e-07
-2.82313e-07
-3.83366e-06
2.38922e-06
3.555e-06
-2.76715e-06
-3.99835e-06
6.72635e-07
5.78638e-08
-1.46343e-07
-5.07836e-07
7.67729e-08
4.44288
4.62713
3.07657
0.199232
4.56933
4.66787
4.22162
3.21958
0.334321
4.69102
4.62083
4.63378
4.60429
4.67197
4.63381
3.98934
4.26361
4.64789
4.41147
4.50384
3.6954
1.71262
-0.0138354
0.0371381
0.000986308
0.0202109
3.34823
4.05373
0.268866
2.17802
1.17029
0.00205385
-0.00118756
-0.00115979
-0.000207994
-6.42473e-05
-0.0003312
0.000105244
0.000262858
-0.000997772
0.000560549
-0.0005769
-0.000140892
-0.000902933
-0.000379894
0.0100845
-0.000263449
-0.0015267
-0.00378105
-0.00229312
0.0029613
0.0144031
-0.00130806
-0.00197766
-0.00243487
-0.000103105
-0.000156163
-0.00033381
-9.61217e-05
-1.2093e-05
-9.01222e-06
-0.000381452
-1.70558e-05
7.71013e-06
3.79611
4.45091
0.929185
2.60405
4.63111
4.66478
4.04141
4.52743
3.11776
1.72339
4.64392
4.66982
3.70318
4.64668
3.91175
0.721791
4.21815
1.54372
4.65998
4.63541
2.734
1.43581
3.84765
4.46644
0.429194
4.64519
4.34884
4.6153
4.51028
3.46353
2.32954
1.70409
-0.0052411
-0.0011465
-0.0198158
-0.0117659
-0.000408834
0.000163469
6.21891e-05
7.75782e-05
-0.000368696
-0.00144096
-0.00725063
-0.00353642
0.0022417
0.00767762
-0.00495307
-0.000460101
0.0107758
0.0156629
-0.000172354
-0.000929472
3.91031e-05
-2.3515e-05
-0.000428954
-0.00023336
0.000161011
-7.9045e-05
-0.00458296
-0.0134445
7.61447e-05
0.00141498
0.000101796
-1.65885e-05
3.08187
2.30273
2.39544
3.26589
3.39994
2.64672
3.01122
3.22022
3.23141
4.41101
1.73131
2.08586
3.79411
4.19852
3.2084
2.5791
-0.244681
-0.0652871
-0.208244
2.47222
0.161259
-0.00116969
0.660719
1.44971
-0.00764861
-0.00132631
4.49825
-0.118318
-0.050088
-0.0196014
-0.00171059
-0.00694323
4.38933
0.0445071
1.04872
2.90815
2.67954
3.89654
4.42421
3.55039
3.39382
3.29749
3.17515
4.50914
4.44131
4.65757
4.67701
4.55586
4.61251
4.43363
4.3717
4.31464
4.58404
4.49948
4.47891
4.33059
3.69551
4.18052
-0.00437384
0.221487
0.4344
-0.178437
0.339895
0.538031
-0.00959179
-0.01313
-0.0205828
-0.000748207
-0.00781596
-0.0305925
-0.027527
-0.00110534
0.0260985
0.00369258
0.00315562
-0.00151682
0.00662817
-0.000871168
0.0145257
0.0117939
-0.0719915
-0.0758055
-0.0632074
-0.0540946
-0.0939778
-0.0656169
-0.053906
-0.0724599
-0.177182
-0.149942
-0.181991
-0.178233
-0.0684729
-0.0341076
-0.105981
-0.0597874
0.0189073
0.00366328
0.00351215
0.00607381
0.00270883
-0.00293981
-0.00478549
-0.0030088
0.00238003
0.00352209
0.000315488
0.00316403
0.00195765
0.00349759
-0.00058759
-0.00101972
0.00883096
0.0278347
0.00795016
-0.00825642
0.0212149
0.0333085
-0.01135
-0.00177182
0.382164
0.0931784
0.140073
-0.0165983
-0.0875795
0.126052
0.192825
0.126137
0.0118384
0.0369918
-0.0105186
-0.00613018
0.0111184
-0.00901177
-0.0560171
-0.119057
-0.0212176
-0.00980783
-0.016004
-0.0168998
0.0267678
0.210108
0.131255
0.406562
-0.082791
0.0735634
-0.0122262
-0.0609579
-0.185573
-0.00273154
0.000300191
-0.00170823
-0.000918465
-0.00113898
0.000881092
0.00610723
0.00355857
0.00721184
0.00842647
-0.00206097
-0.000901286
-0.00204768
-6.09424e-05
-0.000150094
-0.000359948
-0.00063249
-0.000185745
-0.00517059
-0.000101488
1.13596e-05
0.0018699
0.00234358
-0.00272922
-0.000874011
-0.000596928
-0.0003981
-0.000610332
-0.000438452
0.000723858
-0.00013285
2.46639e-05
4.37295e-05
-0.000265599
0.000138646
-0.000642161
-8.71867e-05
-0.000452379
-0.000798936
-0.000288591
-0.000502882
0.00134238
0.000228643
0.0486246
0.0462773
0.0252006
0.0484297
0.127171
0.151572
0.00127157
-0.0552552
0.296515
-0.00945568
-0.0305345
0.0914823
0.101742
0.394335
-0.00779957
-0.0170072
-0.00373789
0.0279469
0.0275707
-0.0281005
-0.0808078
-0.00771184
-0.00450952
-0.00188215
-0.00184183
0.0297065
0.14651
0.229756
0.155961
0.0523039
-0.0673417
-0.00519286
-0.000149103
2.8288e-05
0.00109264
-0.000563934
-1.53163e-05
-1.06047e-05
5.70887e-06
4.54305e-06
0.00010102
0.000222235
-0.000631777
-0.00257948
-2.91486e-06
2.90803e-05
8.2453e-06
2.94214e-06
1.83841e-05
-0.001002
-3.35205e-05
-0.000135137
0.000177072
-4.96154e-06
1.17808e-06
-4.99565e-05
-2.28462e-05
-0.000157521
-4.64261e-05
-0.000746143
-0.00158567
-2.85415e-05
-0.000163233
-0.000108502
4.67644
4.60355
0.00349696
0.000350033
0.0431999
2.02623
4.10773
4.51143
4.62087
4.63808
0.0396493
-0.0116025
1.99758
0.0278656
3.91736
4.50754
3.61293
2.41104
4.64088
4.62756
4.38693
4.66201
-0.0368221
2.12147
4.58085
4.37393
4.48614
4.77335
4.1491
2.18073
0.20698
-0.0236588
0.0041158
-0.00199699
9.47455e-05
-4.17217e-05
-5.10943e-05
0.000229804
0.0161954
-7.81584e-05
-6.88294e-05
3.53225e-05
0.00010144
-0.000123945
0.000303594
-0.00162818
-0.00148596
0.00349606
2.5331e-05
-0.00891294
-0.0123135
-0.000444593
0.00113007
0.0035815
-0.000258003
-0.000168886
-0.000117451
-0.0109013
-0.00114269
-0.00115395
0.000532366
0.000301092
-5.32581e-05
5.35421e-05
-0.00139437
-0.00130899
-0.00116028
-0.00127003
0.000208361
6.95635e-05
0.000115996
-0.000352744
3.59603e-05
5.50897e-05
0.000165021
-1.10203e-05
-0.000124104
1.10607
0.747415
-6.11439e-05
8.52896e-06
7.73793e-05
0.0137689
0.0193065
0.0384543
1.07488
0.612484
-0.00309547
0.099498
-0.00120322
-0.00144578
0.0571625
-0.000215235
-3.99758e-05
0.0173503
-0.000181654
-9.72999e-06
1.16353e-05
7.61489e-05
-3.7574e-05
-1.13626e-06
3.67049e-06
8.33757e-07
-4.63747e-07
-1.6055e-06
5.17231e-07
-4.23487e-07
2.27748e-06
-1.02831e-06
5.57216e-08
-2.46025e-05
0.000123502
6.98615e-05
-0.000134228
6.92594e-05
-1.56514e-05
-4.00312e-05
1.03496e-05
-2.5914e-07
1.61433e-08
1.69457e-05
-9.33579e-05
-7.71498e-06
-2.02488e-05
1.92023e-05
8.90094e-06
-1.43778e-06
-2.18679e-05
8.63271e-07
1.86062e-06
-1.14698e-05
-1.45799e-05
-1.50181e-05
8.07081e-06
-2.11554e-06
1.64384e-06
3.97165e-07
5.37397e-06
1.677e-06
-1.00782e-05
5.40863e-06
-2.23123e-06
-2.05629e-09
1.19274e-06
-1.6705e-07
1.78458e-06
1.0903e-07
7.75302e-06
1.26592e-05
6.20093e-07
-1.84265e-06
1.44076e-05
1.48765e-05
6.25965e-07
-3.7739e-07
-6.46743e-05
-2.09026e-05
2.77568e-05
2.48382e-05
5.55995e-05
8.1119e-09
-2.44587e-06
1.36835e-06
-1.03245e-08
2.05916e-08
-8.51509e-08
1.75941e-07
-2.36777e-07
5.94646e-07
-1.51164e-08
-6.79609e-08
-1.87991e-09
1.6379e-09
-1.42108e-08
9.95723e-09
-3.44129e-08
4.39401e-08
6.06332e-07
5.18117e-06
2.40605e-07
-8.32832e-08
2.10522e-06
-1.44908e-07
6.4133e-09
6.63489e-07
-3.21434e-07
8.72718e-08
-1.21294e-07
-8.30587e-09
-3.19324e-09
9.97238e-09
-6.48235e-10
-7.48328e-07
-3.30439e-07
-7.24853e-07
-6.48379e-07
-2.36021e-07
1.93457e-07
1.55718e-07
-4.09032e-08
-3.72096e-08
4.51369e-09
-1.1128e-07
-3.61855e-08
-4.74735e-09
9.81719e-09
-7.36841e-09
-1.53332e-09
-4.79632e-07
-1.40099e-06
2.58455e-07
-8.83233e-08
-7.89972e-08
-1.05038e-08
1.97061e-07
2.20243e-08
-1.19664e-06
8.82094e-08
-7.74078e-07
9.20836e-06
5.19571e-07
5.97842e-07
-6.52359e-08
8.25664e-09
2.9061e-09
4.31231e-09
-9.32491e-09
-4.31433e-10
0
-8.69322e-10
2.86441e-09
-7.64803e-10
7.65231e-10
-4.8554e-10
0
0
-3.54803e-07
-1.04088e-10
2.93879e-10
0
0
-1.08701e-08
-2.30669e-08
2.53813e-07
-6.71078e-08
5.06961e-08
1.04289e-08
1.39751e-08
7.71429e-10
1.05236e-08
3.47153e-08
-1.39174e-08
-2.38439e-09
3.99108e-10
-9.29617e-10
1.03554e-09
