# vtk DataFile Version 2.0
Unstructured Grid by M++
ASCII
DATASET UNSTRUCTURED_GRID
POINTS 1089 float
  0.968750   0.906250 0
  0.968750   0.937500 0
  1.000000   0.906250 0
  1.000000   0.937500 0
  1.000000   0.968750 0
  0.906250   0.906250 0
  0.906250   0.875000 0
  0.906250   0.812500 0
  0.906250   0.843750 0
  0.937500   0.906250 0
  0.937500   0.937500 0
  0.937500   0.843750 0
  0.937500   0.875000 0
  0.968750   0.875000 0
  0.968750   0.656250 0
  0.968750   0.687500 0
  1.000000   0.656250 0
  1.000000   0.625000 0
  1.000000   0.687500 0
  0.906250   0.656250 0
  0.906250   0.687500 0
  0.906250   0.625000 0
  0.906250   0.531250 0
  0.906250   0.562500 0
  0.906250   0.593750 0
  0.937500   0.656250 0
  0.937500   0.687500 0
  0.937500   0.531250 0
  0.937500   0.562500 0
  0.937500   0.593750 0
  0.937500   0.625000 0
  0.968750   0.625000 0
  0.968750   0.593750 0
  1.000000   0.593750 0
  0.968750   0.562500 0
  1.000000   0.562500 0
  1.000000   0.531250 0
  0.968750   0.531250 0
  0.781250   1.000000 0
  0.812500   0.781250 0
  0.812500   0.812500 0
  0.875000   0.843750 0
  0.875000   0.812500 0
  0.875000   0.875000 0
  0.781250   0.781250 0
  0.843750   0.843750 0
  0.843750   0.812500 0
  0.875000   0.781250 0
  0.843750   0.781250 0
  0.781250   0.750000 0
  0.781250   0.718750 0
  0.781250   0.687500 0
  0.812500   0.750000 0
  0.812500   0.718750 0
  0.812500   0.531250 0
  0.812500   0.687500 0
  0.812500   0.656250 0
  0.812500   0.562500 0
  0.812500   0.593750 0
  0.812500   0.625000 0
  0.875000   0.687500 0
  0.875000   0.656250 0
  0.875000   0.593750 0
  0.875000   0.562500 0
  0.875000   0.625000 0
  0.781250   0.531250 0
  0.781250   0.562500 0
  0.781250   0.625000 0
  0.781250   0.593750 0
  0.781250   0.656250 0
  0.843750   0.656250 0
  0.843750   0.593750 0
  0.843750   0.562500 0
  0.843750   0.625000 0
  0.843750   0.687500 0
  0.843750   0.750000 0
  0.875000   0.531250 0
  0.843750   0.531250 0
  0.656250   0.906250 0
  0.656250   0.937500 0
  0.656250   1.000000 0
  0.656250   0.968750 0
  0.687500   1.000000 0
  0.687500   0.968750 0
  0.687500   0.937500 0
  0.718750   0.937500 0
  0.718750   0.968750 0
  0.718750   1.000000 0
  0.656250   0.781250 0
  0.656250   0.812500 0
  0.656250   0.843750 0
  0.656250   0.875000 0
  0.750000   0.968750 0
  0.750000   1.000000 0
  0.750000   0.656250 0
  0.750000   0.625000 0
  0.687500   0.656250 0
  0.687500   0.687500 0
  0.687500   0.625000 0
  0.718750   0.656250 0
  0.718750   0.687500 0
  0.718750   0.718750 0
  0.656250   0.531250 0
  0.656250   0.562500 0
  0.656250   0.656250 0
  0.656250   0.687500 0
  0.656250   0.750000 0
  0.656250   0.718750 0
  0.656250   0.625000 0
  0.656250   0.593750 0
  0.750000   0.687500 0
  0.750000   0.718750 0
  0.750000   0.750000 0
  0.687500   0.531250 0
  0.687500   0.562500 0
  0.687500   0.593750 0
  0.718750   0.625000 0
  0.750000   0.531250 0
  0.718750   0.531250 0
  0.750000   0.562500 0
  0.718750   0.562500 0
  0.718750   0.593750 0
  0.750000   0.593750 0
  0.562500   1.000000 0
  0.562500   0.968750 0
  0.562500   0.937500 0
  0.562500   0.906250 0
  0.562500   0.812500 0
  0.562500   0.843750 0
  0.562500   0.875000 0
  0.625000   0.937500 0
  0.625000   0.906250 0
  0.562500   0.781250 0
  0.625000   0.875000 0
  0.531250   1.000000 0
  0.531250   0.968750 0
  0.531250   0.937500 0
  0.531250   0.812500 0
  0.531250   0.875000 0
  0.531250   0.843750 0
  0.531250   0.906250 0
  0.593750   0.906250 0
  0.593750   0.843750 0
  0.593750   0.875000 0
  0.593750   0.812500 0
  0.625000   0.843750 0
  0.625000   0.812500 0
  0.593750   0.937500 0
  0.625000   1.000000 0
  0.593750   1.000000 0
  0.593750   0.968750 0
  0.625000   0.968750 0
  0.625000   0.781250 0
  0.593750   0.781250 0
  0.562500   0.531250 0
  0.562500   0.750000 0
  0.562500   0.718750 0
  0.562500   0.687500 0
  0.562500   0.656250 0
  0.562500   0.562500 0
  0.562500   0.593750 0
  0.562500   0.625000 0
  0.625000   0.687500 0
  0.625000   0.656250 0
  0.625000   0.593750 0
  0.625000   0.562500 0
  0.625000   0.625000 0
  0.531250   0.531250 0
  0.531250   0.750000 0
  0.531250   0.718750 0
  0.531250   0.687500 0
  0.531250   0.562500 0
  0.531250   0.625000 0
  0.531250   0.593750 0
  0.531250   0.656250 0
  0.593750   0.656250 0
  0.593750   0.593750 0
  0.593750   0.562500 0
  0.593750   0.625000 0
  0.593750   0.687500 0
  0.625000   0.750000 0
  0.593750   0.750000 0
  0.593750   0.718750 0
  0.625000   0.718750 0
  0.625000   0.531250 0
  0.593750   0.531250 0
  0.968750   0.406250 0
  0.968750   0.437500 0
  0.968750   0.468750 0
  0.968750   0.500000 0
  1.000000   0.406250 0
  1.000000   0.375000 0
  1.000000   0.437500 0
  1.000000   0.468750 0
  1.000000   0.500000 0
  0.906250   0.500000 0
  0.906250   0.406250 0
  0.906250   0.437500 0
  0.906250   0.281250 0
  0.906250   0.312500 0
  0.906250   0.343750 0
  0.906250   0.375000 0
  0.937500   0.406250 0
  0.937500   0.500000 0
  0.937500   0.468750 0
  0.937500   0.437500 0
  0.937500   0.281250 0
  0.937500   0.312500 0
  0.937500   0.343750 0
  0.937500   0.375000 0
  0.968750   0.375000 0
  1.000000   0.281250 0
  0.968750   0.281250 0
  1.000000   0.312500 0
  0.968750   0.312500 0
  0.968750   0.343750 0
  1.000000   0.343750 0
  0.968750   0.125000 0
  0.968750   0.156250 0
  0.968750   0.187500 0
  1.000000   0.000000 0
  1.000000   0.156250 0
  1.000000   0.125000 0
  1.000000   0.187500 0
  1.000000   0.218750 0
  0.531250   0.781250 0
  1.000000   0.250000 0
  0.906250   0.250000 0
  0.906250   0.218750 0
  0.937500   0.250000 0
  0.937500   0.218750 0
  0.968750   0.250000 0
  0.906250   0.031250 0
  0.906250   0.000000 0
  0.906250   0.062500 0
  0.906250   0.093750 0
  0.906250   0.125000 0
  0.937500   0.156250 0
  0.937500   0.031250 0
  0.937500   0.000000 0
  0.937500   0.062500 0
  0.937500   0.093750 0
  0.937500   0.125000 0
  1.000000   0.031250 0
  0.968750   0.031250 0
  0.968750   0.000000 0
  1.000000   0.062500 0
  0.968750   0.062500 0
  0.968750   0.093750 0
  1.000000   0.093750 0
  0.781250   0.312500 0
  0.781250   0.343750 0
  0.812500   0.500000 0
  0.812500   0.468750 0
  0.812500   0.437500 0
  0.812500   0.281250 0
  0.812500   0.312500 0
  0.812500   0.343750 0
  0.812500   0.375000 0
  0.875000   0.281250 0
  0.875000   0.406250 0
  0.875000   0.343750 0
  0.875000   0.312500 0
  0.875000   0.375000 0
  0.843750   0.281250 0
  0.843750   0.312500 0
  0.843750   0.375000 0
  0.843750   0.343750 0
  0.781250   0.500000 0
  0.781250   0.468750 0
  0.781250   0.437500 0
  0.781250   0.406250 0
  0.875000   0.500000 0
  0.843750   0.500000 0
  0.843750   0.468750 0
  0.875000   0.468750 0
  0.781250   0.281250 0
  0.843750   0.218750 0
  0.843750   0.250000 0
  0.843750   0.187500 0
  0.843750   0.156250 0
  0.875000   0.218750 0
  0.875000   0.250000 0
  0.875000   0.187500 0
  0.812500   0.062500 0
  0.812500   0.250000 0
  0.812500   0.218750 0
  0.812500   0.187500 0
  0.812500   0.156250 0
  0.812500   0.125000 0
  0.843750   0.093750 0
  0.843750   0.062500 0
  0.875000   0.125000 0
  0.875000   0.093750 0
  0.875000   0.062500 0
  0.781250   0.250000 0
  0.781250   0.218750 0
  0.781250   0.187500 0
  0.093750   0.937500 0
  0.125000   1.000000 0
  0.937500   0.718750 0
  0.250000   0.000000 0
  0.093750   0.968750 0
  0.125000   0.968750 0
  0.000000   0.718750 0
  0.000000   0.750000 0
  0.125000   0.531250 0
  0.125000   0.562500 0
  0.093750   0.531250 0
  0.031250   0.750000 0
  0.125000   0.468750 0
  0.156250   0.468750 0
  0.500000   0.375000 0
  0.156250   0.500000 0
  0.406250   0.406250 0
  0.406250   0.437500 0
  0.406250   0.500000 0
  0.406250   0.468750 0
  0.406250   0.375000 0
  0.750000   0.312500 0
  0.437500   0.406250 0
  0.437500   0.500000 0
  0.437500   0.468750 0
  0.437500   0.437500 0
  0.468750   0.437500 0
  0.468750   0.468750 0
  0.406250   0.281250 0
  0.406250   0.312500 0
  0.062500   0.375000 0
  0.406250   0.343750 0
  0.062500   0.406250 0
  0.500000   0.468750 0
  0.500000   0.500000 0
  0.437500   0.281250 0
  0.437500   0.312500 0
  0.437500   0.343750 0
  0.093750   0.406250 0
  0.437500   0.375000 0
  0.093750   0.437500 0
  0.468750   0.375000 0
  0.125000   0.437500 0
  0.500000   0.281250 0
  0.468750   0.281250 0
  0.500000   0.312500 0
  0.468750   0.312500 0
  0.468750   0.343750 0
  0.500000   0.343750 0
  0.843750   0.906250 0
  0.156250   0.187500 0
  0.468750   0.187500 0
  0.468750   0.218750 0
  0.468750   0.250000 0
  0.406250   0.031250 0
  0.750000   0.812500 0
  0.062500   0.093750 0
  0.406250   0.000000 0
  0.750000   0.781250 0
  0.062500   0.062500 0
  0.500000   0.187500 0
  0.500000   0.218750 0
  0.500000   0.250000 0
  0.437500   0.031250 0
  0.781250   0.812500 0
  0.093750   0.093750 0
  0.437500   0.000000 0
  0.437500   0.062500 0
  0.781250   0.843750 0
  0.093750   0.125000 0
  0.406250   0.187500 0
  0.406250   0.250000 0
  0.406250   0.218750 0
  0.437500   0.250000 0
  0.437500   0.218750 0
  0.437500   0.187500 0
  0.500000   0.000000 0
  0.500000   0.031250 0
  0.468750   0.031250 0
  0.468750   0.000000 0
  0.500000   0.062500 0
  0.468750   0.062500 0
  0.812500   0.843750 0
  0.125000   0.125000 0
  0.812500   0.875000 0
  0.125000   0.156250 0
  0.500000   0.093750 0
  0.843750   0.875000 0
  0.156250   0.156250 0
  1.000000   1.000000 0
  0.312500   0.281250 0
  0.656250   0.218750 0
  0.437500   0.156250 0
  0.312500   0.500000 0
  0.437500   0.125000 0
  0.312500   0.468750 0
  0.437500   0.093750 0
  0.781250   0.031250 0
  0.312500   0.437500 0
  0.312500   0.406250 0
  0.312500   0.312500 0
  0.312500   0.343750 0
  0.312500   0.375000 0
  0.375000   0.437500 0
  0.375000   0.406250 0
  0.375000   0.343750 0
  0.718750   0.281250 0
  0.375000   0.375000 0
  0.968750   1.000000 0
  0.281250   0.281250 0
  0.406250   0.156250 0
  0.281250   0.500000 0
  0.406250   0.125000 0
  0.281250   0.468750 0
[...]
CELL_DATA 1024
SCALARS scalar_value float 1
LOOKUP_TABLE default
-0.00350817
-0.0210267
0.043346
0.0547075
-0.0546767
-0.0667657
0.00161971
0.00150745
-0.00720464
0.0295383
0.0219285
-0.0386168
-0.0308748
0.00113817
-0.000549093
-0.00992265
0.00442601
0.0179058
-0.00835401
0.0190604
0.03556
-0.00414943
-1.15285e-05
1.38773e-05
0.000621742
-0.000352792
-0.0139265
0.00891625
0.00600843
-0.051342
0.0118931
-0.000831398
0.0523339
0.0461603
-0.00312332
-0.000286682
0.0317693
0.00129578
0.067217
0.0538218
-0.00426551
0.00483412
0.0149796
0.00802596
0.0709474
0.0816767
0.0377787
-0.00711258
-0.0106765
0.0370547
0.0646867
0.00147835
-0.0614466
-0.000217271
0.00759481
-0.0049827
0.00917265
-0.00312216
0.00027777
-0.00313165
0.0167283
0.0208981
-0.0018419
-0.00012527
-3.94811e-07
0.000618162
-1.60827e-06
-1.60843e-05
-0.000749982
-0.0123736
-3.67475e-05
0.000681299
-1.59651e-05
-1.0182e-06
-0.0467776
0.00264678
0.556423
0.263194
1.04367
-0.000358205
-0.000552874
9.40569e-06
9.02859e-07
-0.0648658
-0.0015066
0.135761
0.290378
1.70421
-1.77454e-05
4.39561e-07
-7.34164e-05
0.000998609
-0.00236639
0.256031
0.583926
0.0794858
0.0146916
0.458871
0.469676
-0.00454383
0.94183
1.77779
2.2119
2.29997
3.13912
1.3531
1.52645
4.26486
4.03256
3.25271
2.01269
0.010175
0.0161021
-0.115524
0.043548
0.1159
0.0994952
0.00688019
0.0508662
-0.0721105
0.107117
-0.0347856
-0.00218646
0.0101136
-0.0241366
0.0766967
-0.0197241
1.00643
2.5994
-1.69218e-05
-5.51826e-06
3.10431
3.60858
1.81132
0.0894424
0.00407197
-0.000500993
1.4178e-05
-1.86106e-05
3.0069
3.53181
-0.0152554
1.4132
0.00957087
-0.000834593
2.29952e-05
5.099e-06
0.00889636
-0.00106123
-8.76789e-05
0.0607977
1.42106
5.30758e-05
4.91856e-06
-0.00174231
0.000284635
-0.0077707
0.520161
2.38525
3.21166
3.92502
3.58549
3.77939
2.64195
3.05874
1.57746
0.638422
1.59782
2.92834
4.2641
3.63239
4.32158
3.82305
2.983
4.55247
4.49121
3.48658
2.79186
4.62524
4.48156
4.24394
4.57241
4.3632
4.33404
4.20326
3.6867
4.5928
4.45364
4.63984
4.56668
4.2633
4.40193
0.000585778
-0.000381894
0.000451408
0.000205668
0.00017927
9.21145e-05
6.17468e-05
-9.41048e-05
0.000569157
0.00591246
0.00484754
0.00458901
-0.000111553
0.000107686
0.00066967
-0.000982848
-0.000739214
-0.000146823
0.00014041
0.000181464
0.000554066
-0.000117941
0.464565
0.0247337
2.12986
1.415
-2.22753e-06
-0.000220605
0.0390825
0.148842
0.00213798
-0.0166452
-0.000350369
-0.000647678
0.00527717
-0.000863288
-0.00156216
0.000115872
-0.000647262
-0.00101977
-0.00047723
-0.00974445
-0.00262029
-0.00352961
-0.00624598
-0.0165025
0.0509429
0.84347
1.88544
-0.0281528
0.0096043
-0.0107323
0.0376654
0.012326
0.00143076
-0.0496672
0.21511
0.0441348
0.306047
0.196409
0.0040722
0.0059148
-0.00211482
-0.000125773
0.00308383
0.00419739
4.16552e-05
4.12737e-05
0.000318611
0.00145647
5.40905e-05
0.00019165
-1.04301e-05
1.12305e-05
3.41564e-06
7.52476e-06
0.00251113
0.000919241
3.55242e-05
7.76165e-06
4.19848e-05
0.000268217
0.00020578
0.000689247
3.00986e-05
-4.70475e-05
1.76828e-05
4.40519e-05
2.43724e-07
-2.29776e-06
2.48648e-06
-2.53005e-07
6.58294e-08
2.26037e-07
1.46989e-06
-6.37019e-07
-2.51681e-09
1.2654e-08
1.09657e-09
0
-1.17577e-05
-2.56231e-06
5.44962e-07
-4.64114e-07
2.06683e-06
-1.46939e-06
-2.60555e-06
5.38316e-06
5.54337e-07
8.76131e-07
-1.92599e-08
7.49514e-07
-2.07802e-07
-9.09856e-08
1.11401e-06
-2.15167e-08
7.44809e-08
3.27733e-08
-1.21615e-08
1.19975e-06
-4.17597e-07
2.39651e-08
1.28534e-09
9.06127e-09
-4.7909e-08
-1.28051e-09
-1.21196e-07
1.14044e-07
0.251611
0.25162
-0.0362116
0.0423171
0.123146
0.00668783
-0.000453711
0.000193164
4.35803
4.3698
3.96074
2.85795
1.72707
4.08535
0.0249869
-0.00606087
-3.42249e-05
0.0211071
0.0563027
0.0360546
0.0288511
-0.000197515
2.65455e-05
0.0158253
0.00104799
0.00680061
0.00245789
0.0095998
0.000104587
3.09026e-07
0.00174928
7.6077e-05
8.77032e-05
-0.000363035
0.00060879
-7.40206e-05
4.89543e-06
2.45112e-05
2.73468e-06
3.83528e-06
-5.6569e-06
6.52282e-06
-0.000173664
-0.000127105
1.91991e-06
-5.1716e-05
1.38569e-05
-3.36164e-06
-5.4705e-05
-2.78838e-05
2.77054e-05
-5.72339e-05
-3.049e-06
-5.67457e-07
1.80809e-05
-3.65071e-06
-4.12595e-05
6.2665e-06
3.52111e-05
-4.44245e-05
1.23785e-07
1.36524e-06
-5.44653e-06
-4.23409e-06
4.63751
4.63118
4.54666
3.51883
4.65819
4.64326
4.55857
4.57946
3.58381
4.6268
4.66492
4.56119
4.5974
4.54979
4.46708
2.87137
2.5945
4.54947
3.89901
4.64297
4.62495
4.50659
3.84047
1.97303
0.0402078
0.0735492
4.55471
4.63999
2.10961
4.26445
3.72102
0.641508
-0.0023976
0.0300314
6.4081e-06
6.71724e-06
3.03278e-05
0.000298088
-0.00166289
-0.000296934
-0.00224795
-0.00048683
-0.000155053
-0.000760967
0.000687051
0.69252
0.000793906
-0.00251121
-0.00494401
-0.00413427
0.00265862
0.652067
-0.00134715
-0.00403679
-0.00536879
-3.03554e-05
-2.68254e-05
-3.67829e-05
0.00020567
3.21825e-05
-5.87941e-05
-0.000752581
-0.00045421
-0.000102803
3.21904
4.17106
0.216113
1.68472
4.60857
4.63797
3.58429
4.37722
2.35735
0.77341
4.66559
4.63544
4.61618
4.64897
4.61728
3.75701
4.63795
4.16741
4.64572
4.61011
1.64933
0.287756
3.21518
4.18519
3.13709
4.62445
3.71548
4.38903
4.65244
2.42543
0.79432
4.26088
-0.00928033
-0.00305853
1.04861
-0.00372594
-0.00314042
-0.00130622
-0.000151034
-0.000261015
6.50732e-05
-0.000366461
-0.00927161
-0.00236176
-0.0017697
0.864232
0.00162838
-0.00155189
0.00272105
0.205921
-0.00104203
-0.00256861
-0.000398898
-0.000215813
0.000319289
-6.55098e-05
-0.000194601
-0.00155239
-0.0237432
1.5608
-0.0108771
-0.004481
0.00011954
0.000132592
-0.0434809
-0.000388806
4.31164
3.31337
2.93301
4.21123
4.0298
3.78742
3.5803
1.66518
0.0255204
0.00181932
0.300017
0.894028
0.0202689
-0.0270609
-0.000693321
4.87605e-05
0.000917223
4.44045
-0.00835781
0.00135984
-0.000748761
0.0142541
0.00893731
0.00592365
2.39421
0.000252155
-0.000810888
0.00130193
0.00130822
0.00266478
4.08675
-0.0674776
0.0367123
4.61795
4.55882
4.4612
4.49019
4.66214
4.79503
4.77876
4.69621
2.94126
3.14581
4.06221
4.4522
3.27805
3.60285
3.11159
3.09104
3.93666
2.80796
1.83853
3.40426
3.74496
0.0815678
0.730217
0.0887821
0.161145
0.164035
0.0215819
0.011916
0.0827389
4.05206
1.86877
1.36979
3.45283
2.66326
1.26438
0.959773
0.233467
-0.0833142
1.88218
0.363117
3.25929
0.00675399
-0.162691
0.0488239
0.0133701
4.41194
4.54526
4.18759
3.78428
0.649116
0.103448
3.03361
1.8466
4.47358
4.20848
4.57992
4.59887
1.96345
2.43916
3.75126
3.12025
-0.00350897
-0.0124286
0.0175934
0.0274677
0.0162829
-0.0222945
-0.0284526
-0.0573475
-0.0499761
-6.14211e-05
0.0116463
0.00904234
0.0144227
0.00527343
0.0110994
-0.00302059
0.0190736
0.0114584
-0.0387877
-0.0488142
-0.108381
0.285068
-0.0407512
-0.10645
3.82456
1.86273
2.12249
1.64008
1.69971
2.44041
3.41337
2.90523
4.15221
4.18387
0.401858
0.480835
1.3336
0.296688
1.91619
1.7377
0.0505828
-0.210226
0.00675819
2.12035
-0.229926
0.900853
1.59645
1.30007
-0.0901989
0.0297691
0.164023
0.345611
0.0551587
0.138657
2.32312
0.815909
2.33912
1.94664
3.86188
0.0389613
2.94832
1.3224
0.244505
0.0173726
-0.0338217
-0.178673
5.10505e-05
0.000602095
0.00378651
-0.00854761
0.0289677
0.0288649
-0.000254223
-0.000371578
-0.00128924
0.0125476
0.214187
0.0775459
-0.00321326
-0.00110321
0.00152694
0.0162777
0.00737813
0.0494566
0.000457194
-0.000673455
0.00188883
-0.00213076
0.00231742
-0.00198075
-0.00357088
-0.00190798
-0.00235383
0.00222063
0.00290205
0.00690246
0.0584279
0.043842
-0.0224251
-0.0351769
0.0247506
0.049494
0.0509791
-0.0249936
-0.0386423
-0.0254798
-0.0110073
0.266682
-0.0755161
0.0708112
0.0665718
-0.0584013
0.0374417
0.0228241
0.0240839
-0.00947935
-0.0564578
-0.0261119
-0.0190157
0.0630802
0.0661489
-0.0027351
-0.0477711
0.0879143
-0.0236994
0.0749957
-0.159155
0.0237243
0.0456518
0.0074091
0.0256822
0.0334135
-0.000649946
5.52994e-05
8.97204e-05
-3.90704e-05
0.0610614
0.0109202
0.0374524
0.00784595
3.15347e-05
-0.00114036
0.000140355
-2.31072e-05
-0.00034361
0.08658
0.033962
0.126684
0.0198206
3.38452e-05
-4.65437e-06
-0.00169651
-0.000214576
0.00616329
-0.00116177
0.0366815
0.0638842
5.78676e-05
-0.0037484
-0.00100817
4.51883
4.67611
0.331871
-0.00128014
3.20399
4.59244
4.67273
4.70979
4.61922
4.65327
1.68916
0.033972
4.52285
3.8647
4.69016
4.65408
2.60987
1.0418
4.63917
4.5606
3.86627
4.65116
1.55401
4.42862
4.39972
4.23633
4.64519
4.50493
4.72426
4.31707
2.95145
0.408017
0.00360996
0.0013194
7.85998e-05
-2.48686e-05
-0.000101616
0.000348109
0.00565697
0.000178782
-5.05036e-05
3.97527e-05
-1.60252e-05
-0.000103062
-0.000371243
-0.000701789
-0.00251323
-0.00197248
-6.64774e-05
-0.0137599
-0.0092498
0.000354013
0.000496419
0.00216435
4.31291e-05
-0.000115587
-0.000135428
-0.0106483
-0.00138042
-0.00461869
0.000178449
0.000213946
-0.000105307
8.81796e-05
0.00376171
0.0049134
-0.00575714
-0.00063326
-0.000271982
0.000362382
-0.00132251
-0.00578102
0.000144305
-0.00139056
-0.000731866
0.000162653
0.000150272
3.7906
3.93911
0.000250264
-6.14846e-05
-7.6993e-05
0.53984
0.725895
0.0239828
3.44039
2.69651
0.268036
1.44819
-0.00318522
-0.00312255
-0.184124
-2.24926e-05
5.77431e-05
-0.0210865
0.0266268
-8.40308e-05
2.00246e-05
-0.0002452
0.000149492
4.45891e-06
7.2729e-06
1.44902e-06
-6.80892e-06
6.97245e-05
1.31772e-07
3.88591e-06
4.56887e-06
-3.71837e-06
8.25855e-07
-0.000310885
0.000142695
-0.000646854
-0.00196004
4.7983e-05
-8.61929e-05
-8.7295e-06
1.53963e-06
1.93528e-07
1.42781e-07
-0.000209414
0.00043516
0.000159557
-0.000108323
2.20068e-05
7.91038e-06
-1.81826e-06
-1.83159e-06
1.45066e-05
-3.78686e-06
4.47847e-05
1.51556e-05
-0.000223207
-0.000617218
-7.72656e-05
9.10714e-05
-0.000136414
0.000172091
0.000382691
0.000140634
-0.000313021
-6.7231e-05
3.58145e-06
-4.90423e-05
-2.79264e-05
2.98702e-05
0.000119141
2.93961e-05
-3.25756e-07
1.54894e-05
-1.21145e-05
-0.000600146
-0.000114208
1.45498e-05
5.02299e-05
0.000176128
-0.000199321
-6.134e-05
-0.00193894
-0.000556673
1.41074e-09
-3.1303e-05
3.23833e-05
-1.17967e-09
-2.88667e-07
6.77258e-07
-1.79883e-06
-3.10968e-06
1.30984e-05
7.23967e-06
-6.31442e-06
7.03943e-08
1.61327e-07
3.79232e-06
-9.51137e-07
-5.04375e-06
4.72931e-06
5.36782e-06
-8.10021e-06
-6.13988e-08
1.49176e-06
-1.01587e-06
-1.8066e-07
1.13585e-07
-1.49523e-06
3.55534e-07
-6.3084e-08
6.99745e-07
-6.52512e-07
1.78386e-07
6.77412e-09
3.59515e-10
-6.06696e-05
-2.35311e-06
-1.39148e-05
-2.01912e-05
2.34552e-05
7.26233e-06
1.3063e-06
-9.16715e-07
-3.07721e-06
1.14812e-06
1.82311e-07
2.16899e-06
-3.20255e-07
-7.40967e-08
-3.3871e-07
-1.05586e-08
-8.45618e-05
0.000174972
-9.93022e-06
7.39538e-05
-4.23414e-06
9.43525e-07
-8.94537e-06
-9.70634e-06
-1.87058e-05
3.29786e-05
-0.000270917
-0.000291736
1.17639e-05
1.46048e-05
-7.55025e-06
-6.59867e-06
-3.44223e-08
3.38958e-07
-2.35636e-07
-3.27646e-08
4.04548e-09
1.80685e-08
7.44535e-08
-7.89936e-09
-1.24376e-08
-9.72266e-09
-6.68991e-10
2.57819e-10
-1.03031e-05
-3.75331e-09
3.39827e-09
0
2.88568e-10
-3.31578e-07
2.19463e-07
2.23491e-06
-3.46848e-06
2.52313e-07
5.04706e-07
-3.54436e-07
-2.12981e-08
1.73637e-07
1.68404e-06
-4.14579e-07
-5.49734e-08
6.44775e-09
1.62808e-07
6.43783e-08
