# vtk DataFile Version 2.0
Unstructured Grid by M++
ASCII
DATASET UNSTRUCTURED_GRID
POINTS 1089 float
  0.968750   0.906250 0
  0.968750   0.937500 0
  1.000000   0.906250 0
  1.000000   0.937500 0
  1.000000   0.968750 0
  0.906250   0.906250 0
  0.906250   0.875000 0
  0.906250   0.812500 0
  0.906250   0.843750 0
  0.937500   0.906250 0
  0.937500   0.937500 0
  0.937500   0.843750 0
  0.937500   0.875000 0
  0.968750   0.875000 0
  0.968750   0.656250 0
  0.968750   0.687500 0
  1.000000   0.656250 0
  1.000000   0.625000 0
  1.000000   0.687500 0
  0.906250   0.656250 0
  0.906250   0.687500 0
  0.906250   0.625000 0
  0.906250   0.531250 0
  0.906250   0.562500 0
  0.906250   0.593750 0
  0.937500   0.656250 0
  0.937500   0.687500 0
  0.937500   0.531250 0
  0.937500   0.562500 0
  0.937500   0.593750 0
  0.937500   0.625000 0
  0.968750   0.625000 0
  0.968750   0.593750 0
  1.000000   0.593750 0
  0.968750   0.562500 0
  1.000000   0.562500 0
  1.000000   0.531250 0
  0.968750   0.531250 0
  0.781250   1.000000 0
  0.812500   0.781250 0
  0.812500   0.812500 0
  0.875000   0.843750 0
  0.875000   0.812500 0
  0.875000   0.875000 0
  0.781250   0.781250 0
  0.843750   0.843750 0
  0.843750   0.812500 0
  0.875000   0.781250 0
  0.843750   0.781250 0
  0.781250   0.750000 0
  0.781250   0.718750 0
  0.781250   0.687500 0
  0.812500   0.750000 0
  0.812500   0.718750 0
  0.812500   0.531250 0
  0.812500   0.687500 0
  0.812500   0.656250 0
  0.812500   0.562500 0
  0.812500   0.593750 0
  0.812500   0.625000 0
  0.875000   0.687500 0
  0.875000   0.656250 0
  0.875000   0.593750 0
  0.875000   0.562500 0
  0.875000   0.625000 0
  0.781250   0.531250 0
  0.781250   0.562500 0
  0.781250   0.625000 0
  0.781250   0.593750 0
  0.781250   0.656250 0
  0.843750   0.656250 0
  0.843750   0.593750 0
  0.843750   0.562500 0
  0.843750   0.625000 0
  0.843750   0.687500 0
  0.843750   0.750000 0
  0.875000   0.531250 0
  0.843750   0.531250 0
  0.656250   0.906250 0
  0.656250   0.937500 0
  0.656250   1.000000 0
  0.656250   0.968750 0
  0.687500   1.000000 0
  0.687500   0.968750 0
  0.687500   0.937500 0
  0.718750   0.937500 0
  0.718750   0.968750 0
  0.718750   1.000000 0
  0.656250   0.781250 0
  0.656250   0.812500 0
  0.656250   0.843750 0
  0.656250   0.875000 0
  0.750000   0.968750 0
  0.750000   1.000000 0
  0.750000   0.656250 0
  0.750000   0.625000 0
  0.687500   0.656250 0
  0.687500   0.687500 0
  0.687500   0.625000 0
  0.718750   0.656250 0
  0.718750   0.687500 0
  0.718750   0.718750 0
  0.656250   0.531250 0
  0.656250   0.562500 0
  0.656250   0.656250 0
  0.656250   0.687500 0
  0.656250   0.750000 0
  0.656250   0.718750 0
  0.656250   0.625000 0
  0.656250   0.593750 0
  0.750000   0.687500 0
  0.750000   0.718750 0
  0.750000   0.750000 0
  0.687500   0.531250 0
  0.687500   0.562500 0
  0.687500   0.593750 0
  0.718750   0.625000 0
  0.750000   0.531250 0
  0.718750   0.531250 0
  0.750000   0.562500 0
  0.718750   0.562500 0
  0.718750   0.593750 0
  0.750000   0.593750 0
  0.562500   1.000000 0
  0.562500   0.968750 0
  0.562500   0.937500 0
  0.562500   0.906250 0
  0.562500   0.812500 0
  0.562500   0.843750 0
  0.562500   0.875000 0
  0.625000   0.937500 0
  0.625000   0.906250 0
  0.562500   0.781250 0
  0.625000   0.875000 0
  0.531250   1.000000 0
  0.531250   0.968750 0
  0.531250   0.937500 0
  0.531250   0.812500 0
  0.531250   0.875000 0
  0.531250   0.843750 0
  0.531250   0.906250 0
  0.593750   0.906250 0
  0.593750   0.843750 0
  0.593750   0.875000 0
  0.593750   0.812500 0
  0.625000   0.843750 0
  0.625000   0.812500 0
  0.593750   0.937500 0
  0.625000   1.000000 0
  0.593750   1.000000 0
  0.593750   0.968750 0
  0.625000   0.968750 0
  0.625000   0.781250 0
  0.593750   0.781250 0
  0.562500   0.531250 0
  0.562500   0.750000 0
  0.562500   0.718750 0
  0.562500   0.687500 0
  0.562500   0.656250 0
  0.562500   0.562500 0
  0.562500   0.593750 0
  0.562500   0.625000 0
  0.625000   0.687500 0
  0.625000   0.656250 0
  0.625000   0.593750 0
  0.625000   0.562500 0
  0.625000   0.625000 0
  0.531250   0.531250 0
  0.531250   0.750000 0
  0.531250   0.718750 0
  0.531250   0.687500 0
  0.531250   0.562500 0
  0.531250   0.625000 0
  0.531250   0.593750 0
  0.531250   0.656250 0
  0.593750   0.656250 0
  0.593750   0.593750 0
  0.593750   0.562500 0
  0.593750   0.625000 0
  0.593750   0.687500 0
  0.625000   0.750000 0
  0.593750   0.750000 0
  0.593750   0.718750 0
  0.625000   0.718750 0
  0.625000   0.531250 0
  0.593750   0.531250 0
  0.968750   0.406250 0
  0.968750   0.437500 0
  0.968750   0.468750 0
  0.968750   0.500000 0
  1.000000   0.406250 0
  1.000000   0.375000 0
  1.000000   0.437500 0
  1.000000   0.468750 0
  1.000000   0.500000 0
  0.906250   0.500000 0
  0.906250   0.406250 0
  0.906250   0.437500 0
  0.906250   0.281250 0
  0.906250   0.312500 0
  0.906250   0.343750 0
  0.906250   0.375000 0
  0.937500   0.406250 0
  0.937500   0.500000 0
  0.937500   0.468750 0
  0.937500   0.437500 0
  0.937500   0.281250 0
  0.937500   0.312500 0
  0.937500   0.343750 0
  0.937500   0.375000 0
  0.968750   0.375000 0
  1.000000   0.281250 0
  0.968750   0.281250 0
  1.000000   0.312500 0
  0.968750   0.312500 0
  0.968750   0.343750 0
  1.000000   0.343750 0
  0.968750   0.125000 0
  0.968750   0.156250 0
  0.968750   0.187500 0
  1.000000   0.000000 0
  1.000000   0.156250 0
  1.000000   0.125000 0
  1.000000   0.187500 0
  1.000000   0.218750 0
  0.531250   0.781250 0
  1.000000   0.250000 0
  0.906250   0.250000 0
  0.906250   0.218750 0
  0.937500   0.250000 0
  0.937500   0.218750 0
  0.968750   0.250000 0
  0.906250   0.031250 0
  0.906250   0.000000 0
  0.906250   0.062500 0
  0.906250   0.093750 0
  0.906250   0.125000 0
  0.937500   0.156250 0
  0.937500   0.031250 0
  0.937500   0.000000 0
  0.937500   0.062500 0
  0.937500   0.093750 0
  0.937500   0.125000 0
  1.000000   0.031250 0
  0.968750   0.031250 0
  0.968750   0.000000 0
  1.000000   0.062500 0
  0.968750   0.062500 0
  0.968750   0.093750 0
  1.000000   0.093750 0
  0.781250   0.312500 0
  0.781250   0.343750 0
  0.812500   0.500000 0
  0.812500   0.468750 0
  0.812500   0.437500 0
  0.812500   0.281250 0
  0.812500   0.312500 0
  0.812500   0.343750 0
  0.812500   0.375000 0
  0.875000   0.281250 0
  0.875000   0.406250 0
  0.875000   0.343750 0
  0.875000   0.312500 0
  0.875000   0.375000 0
  0.843750   0.281250 0
  0.843750   0.312500 0
  0.843750   0.375000 0
  0.843750   0.343750 0
  0.781250   0.500000 0
  0.781250   0.468750 0
  0.781250   0.437500 0
  0.781250   0.406250 0
  0.875000   0.500000 0
  0.843750   0.500000 0
  0.843750   0.468750 0
  0.875000   0.468750 0
  0.781250   0.281250 0
  0.843750   0.218750 0
  0.843750   0.250000 0
  0.843750   0.187500 0
  0.843750   0.156250 0
  0.875000   0.218750 0
  0.875000   0.250000 0
  0.875000   0.187500 0
  0.812500   0.062500 0
  0.812500   0.250000 0
  0.812500   0.218750 0
  0.812500   0.187500 0
  0.812500   0.156250 0
  0.812500   0.125000 0
  0.843750   0.093750 0
  0.843750   0.062500 0
  0.875000   0.125000 0
  0.875000   0.093750 0
  0.875000   0.062500 0
  0.781250   0.250000 0
  0.781250   0.218750 0
  0.781250   0.187500 0
  0.093750   0.937500 0
  0.125000   1.000000 0
  0.937500   0.718750 0
  0.250000   0.000000 0
  0.093750   0.968750 0
  0.125000   0.968750 0
  0.000000   0.718750 0
  0.000000   0.750000 0
  0.125000   0.531250 0
  0.125000   0.562500 0
  0.093750   0.531250 0
  0.031250   0.750000 0
  0.125000   0.468750 0
  0.156250   0.468750 0
  0.500000   0.375000 0
  0.156250   0.500000 0
  0.406250   0.406250 0
  0.406250   0.437500 0
  0.406250   0.500000 0
  0.406250   0.468750 0
  0.406250   0.375000 0
  0.750000   0.312500 0
  0.437500   0.406250 0
  0.437500   0.500000 0
  0.437500   0.468750 0
  0.437500   0.437500 0
  0.468750   0.437500 0
  0.468750   0.468750 0
  0.406250   0.281250 0
  0.406250   0.312500 0
  0.062500   0.375000 0
  0.406250   0.343750 0
  0.062500   0.406250 0
  0.500000   0.468750 0
  0.500000   0.500000 0
  0.437500   0.281250 0
  0.437500   0.312500 0
  0.437500   0.343750 0
  0.093750   0.406250 0
  0.437500   0.375000 0
  0.093750   0.437500 0
  0.468750   0.375000 0
  0.125000   0.437500 0
  0.500000   0.281250 0
  0.468750   0.281250 0
  0.500000   0.312500 0
  0.468750   0.312500 0
  0.468750   0.343750 0
  0.500000   0.343750 0
  0.843750   0.906250 0
  0.156250   0.187500 0
  0.468750   0.187500 0
  0.468750   0.218750 0
  0.468750   0.250000 0
  0.406250   0.031250 0
  0.750000   0.812500 0
  0.062500   0.093750 0
  0.406250   0.000000 0
  0.750000   0.781250 0
  0.062500   0.062500 0
  0.500000   0.187500 0
  0.500000   0.218750 0
  0.500000   0.250000 0
  0.437500   0.031250 0
  0.781250   0.812500 0
  0.093750   0.093750 0
  0.437500   0.000000 0
  0.437500   0.062500 0
  0.781250   0.843750 0
  0.093750   0.125000 0
  0.406250   0.187500 0
  0.406250   0.250000 0
  0.406250   0.218750 0
  0.437500   0.250000 0
  0.437500   0.218750 0
  0.437500   0.187500 0
  0.500000   0.000000 0
  0.500000   0.031250 0
  0.468750   0.031250 0
  0.468750   0.000000 0
  0.500000   0.062500 0
  0.468750   0.062500 0
  0.812500   0.843750 0
  0.125000   0.125000 0
  0.812500   0.875000 0
  0.125000   0.156250 0
  0.500000   0.093750 0
  0.843750   0.875000 0
  0.156250   0.156250 0
  1.000000   1.000000 0
  0.312500   0.281250 0
  0.656250   0.218750 0
  0.437500   0.156250 0
  0.312500   0.500000 0
  0.437500   0.125000 0
  0.312500   0.468750 0
  0.437500   0.093750 0
  0.781250   0.031250 0
  0.312500   0.437500 0
  0.312500   0.406250 0
  0.312500   0.312500 0
  0.312500   0.343750 0
  0.312500   0.375000 0
  0.375000   0.437500 0
  0.375000   0.406250 0
  0.375000   0.343750 0
  0.718750   0.281250 0
  0.375000   0.375000 0
  0.968750   1.000000 0
  0.281250   0.281250 0
  0.406250   0.156250 0
  0.281250   0.500000 0
  0.406250   0.125000 0
  0.281250   0.468750 0
[...]
CELL_DATA 1024
SCALARS scalar_value float 1
LOOKUP_TABLE default
0.00225725
0.0513333
-0.0250081
-0.019732
0.118337
0.135842
0.0509925
-0.000414643
0.0316491
-0.0172218
-0.026171
0.0734768
0.0700184
0.0335554
-0.00695778
0.0107517
0.0350772
-0.0318307
-0.0581198
-0.00716709
0.0233366
0.0325307
0.0524933
0.0593945
0.0353917
0.0190668
0.0461606
0.0353444
0.0758222
-0.0170196
0.0129798
-0.0284375
-0.0192376
-0.026576
0.000433603
0.000323207
-0.000380693
0.000477106
-0.00979614
-0.0191642
0.000498311
0.000797705
-0.000460114
-0.00423523
-0.065955
-0.0455629
-0.00575927
-0.0201779
0.0130623
0.0421603
-0.00827352
-0.0237629
-0.0222562
8.20967e-05
-0.00161622
0.000175568
-0.00029918
0.000163544
-0.0104872
5.87167e-05
-0.0039981
-0.000913851
-1.96305e-05
2.24032e-05
0.0569057
-0.146559
0.00528722
0.21313
-0.0187265
0.0308955
0.377207
-0.0213968
0.14756
0.00185838
-0.067958
0.0288536
-0.0229393
0.0487542
0.0209257
0.0878159
0.0317592
0.0735547
-0.0292638
-0.0772364
-0.0377736
-0.00233387
-0.00299344
-0.0290883
0.0492709
-0.0718511
0.0389502
-0.0489116
0.0314055
0.125789
0.0105429
0.119792
0.0293923
0.00328776
0.0121021
-0.0631563
-0.0033129
-0.00168009
0.0212044
-0.0205458
0.00426055
0.0352667
-0.0483133
0.0536359
-0.00418684
-0.108957
0.115327
0.000345748
0.00107247
-0.00435619
0.012652
0.0334192
-0.000669357
-0.035776
-0.0249355
0.00561006
-0.00539954
-0.000530137
-0.0024521
-0.00630698
0.00683715
-0.0526171
-0.0512486
-0.01163
0.00381498
-0.103459
0.483216
0.0449492
0.00794156
-0.0478822
-0.114151
-0.168747
0.05586
0.9082
0.546197
-0.0242089
0.00921579
0.0793712
0.0409314
-0.0252093
0.0999139
0.213834
-0.0473969
0.0676505
0.154363
0.473358
-0.0415497
-0.00721518
0.573877
-0.0745248
0.125853
0.556031
0.0838482
0.11674
0.0703706
0.00561899
-0.00655916
-0.0446424
-0.0370988
4.53977
4.42078
4.70482
4.15197
1.72579
-0.0305443
-0.011776
4.33055
3.1157
0.725984
3.24724
0.00495293
-0.00526938
0.000257192
0.0195789
-0.0452294
0.011482
-0.00439648
0.108064
0.309659
-0.066793
-0.00762842
0.0110973
-0.0116912
-0.0050048
0.0786247
0.0615315
1.82295
3.01764
2.3261
3.44221
2.75941
4.27391
3.97623
4.40853
4.41804
2.30254
2.33233
2.19252
2.38862
3.40776
1.64117
2.91852
3.50439
2.15431
1.04281
0.00951374
0.753539
0.0209296
0.102728
0.0346615
0.0376056
0.0666352
-0.049248
0.00319697
-0.183495
-0.04404
0.0374872
0.195994
0.00833643
0.0489601
1.76848
1.32269
3.60786
2.59287
0.955827
-0.230273
-0.272066
-0.0793924
0.277355
-0.0552723
-0.263787
0.562746
0.691125
1.63703
3.07604
0.430034
-0.0118079
0.638729
1.85084
3.74383
1.40389
4.23329
4.27936
4.53233
4.55999
4.6442
4.60343
4.5668
3.36647
2.8706
4.30596
4.2145
0.000114454
0.000229577
-4.59968e-07
3.7665e-07
2.41554e-06
4.38702e-05
1.43316e-06
5.37825e-06
-9.66852e-08
8.92094e-10
7.04319e-09
1.86389e-07
8.99926e-05
2.9348e-05
1.20398e-07
2.92183e-08
3.51304e-07
6.49109e-06
6.34548e-06
2.11012e-05
-7.45902e-07
3.90623e-07
5.12318e-08
1.01213e-06
4.05194e-08
-8.01605e-09
-6.8235e-09
2.25461e-08
-7.84937e-10
-2.45341e-10
5.84047e-09
3.85857e-09
-1.59773e-10
1.20378e-09
1.41487e-10
0
-1.9582e-07
3.76359e-07
-5.75849e-08
1.78137e-08
9.53646e-08
-9.47337e-08
1.70723e-07
-6.70283e-08
4.28156e-08
2.44585e-08
2.31048e-09
3.77722e-09
-9.92599e-09
7.93199e-09
-6.09368e-08
-1.21923e-09
-6.10573e-09
3.78357e-09
-2.55692e-09
-5.60011e-09
7.33903e-09
-6.63398e-10
7.89508e-10
-7.20544e-10
-1.43996e-10
-3.69198e-10
-1.89185e-09
1.74376e-09
0.00592015
0.000536135
0.00554114
0.00183185
0.000107222
2.33334e-05
-0.000398013
-0.000150715
0.0122006
0.0153181
0.0555411
-0.0596481
-0.00161416
-0.00292401
0.00195227
0.00247056
1.09017e-06
0.000748771
0.00198835
0.00124626
0.000162415
1.55384e-05
8.87677e-07
-4.24517e-05
-1.74652e-05
0.000255009
1.85915e-05
0.000344719
0.000594141
-2.36688e-06
1.07835e-05
4.0909e-07
2.20442e-05
-0.000198637
0.000250581
1.20689e-05
-3.92753e-06
4.75323e-06
-7.73085e-06
-1.5355e-06
-1.48644e-06
-1.2763e-06
-2.21864e-05
-1.43749e-05
-1.40794e-05
-1.90795e-05
-2.82433e-06
-1.19546e-07
-1.02486e-05
1.18266e-05
1.84405e-06
-7.13136e-07
-1.11705e-06
1.92242e-07
8.68252e-07
1.1848e-06
-6.9348e-07
-9.88413e-07
5.99649e-07
-1.15712e-07
2.73081e-08
1.69293e-08
1.0927e-06
-3.19968e-07
-0.0992653
0.525622
-0.0139506
-0.00651889
0.610095
3.92519
1.31395
-0.00924774
-0.0102426
3.9317
1.11275
4.54158
2.61215
3.39862
4.10435
4.60696
4.53997
4.64372
4.62657
0.0601242
0.0571532
0.0759063
0.0201131
-4.20483e-05
-0.0021183
0.000627263
0.265154
0.0575246
-0.00333152
0.120774
0.00623879
-0.000272772
-0.000565002
-0.00101688
0.000367579
0.000102629
0.000801913
-0.00055606
-0.00128096
-0.000249299
-0.000229336
0.000154658
3.80984e-05
0.000207316
2.64325e-05
-0.00702038
-0.00220681
-0.000292165
0.000595081
-0.00161849
0.000210403
-0.00596318
0.00219452
0.00300265
0.00227924
5.20595e-05
0.000112282
-7.50598e-05
4.66634e-05
-5.49957e-06
-1.70196e-06
7.72211e-05
-5.23441e-05
-9.85821e-06
4.39624
4.69681
2.67202
3.68444
4.62667
4.19949
4.60264
4.53323
4.00087
3.08276
3.33188
4.76244
0.218517
2.87325
0.167164
0.00595447
0.272999
0.0213352
3.76874
4.65074
4.12046
3.42509
4.51588
4.66695
0.0100221
4.61934
4.65108
4.63845
0.984937
4.43477
4.14944
0.0122102
-0.00650785
-0.001966
-0.00711823
-0.0131425
-0.00102189
-0.000579535
2.14441e-05
-0.000279859
0.000655395
0.000492404
0.00104847
-0.000108839
-0.00175279
0.00317424
-0.00373614
-0.00241067
0.00457448
0.00215835
-0.000792157
-0.0021359
-0.00023669
-7.54398e-05
0.000736501
0.000320056
-0.00245086
-0.00562486
-0.00515515
0.0096348
-0.00102787
-0.00611928
-0.000859507
-0.000291053
4.81362
4.35716
-0.0588057
0.0265861
0.0960332
-0.0399631
-0.00595518
0.0254041
0.0180521
2.97375
4.7762
4.81714
4.04802
3.46005
4.53404
4.77869
-0.539024
-0.236865
-0.53443
-0.098828
2.01115
1.11382
2.9637
3.76633
0.554181
0.360343
2.69376
-0.346114
-0.0440317
0.252067
0.483231
0.448243
4.55607
2.09418
3.03218
-0.237267
-0.161002
1.24543
2.21444
0.490066
-0.0215297
-0.287029
-0.318004
2.63208
2.8455
4.40785
4.2448
4.05633
4.3129
3.70789
3.27881
4.56071
4.68771
4.91127
4.61895
4.65407
5.05511
5.07562
0.297778
0.0643076
0.190264
1.03648
0.232921
0.371742
0.000317792
0.004684
0.00309238
0.00359607
0.0046206
-0.000165927
-0.000103729
0.00552051
0.0172845
-0.00181024
-0.000270534
-0.000336044
0.0120361
0.00621508
0.0125715
0.00990275
-0.012348
-0.0141761
-0.0079843
-0.000484311
0.0146423
0.00585969
0.010097
0.0168756
-0.0341902
-0.026919
-0.0384724
-0.0386902
-0.00912678
-0.00369325
-0.01646
-0.00807184
0.0270537
0.0291824
0.00709806
0.00833143
0.0036118
0.0275627
0.022366
0.012371
0.00217124
-0.00172535
-0.00218081
-0.000160717
-0.00186857
-0.00221228
-0.000914264
-0.00070281
0.0038713
0.00958397
0.0170199
0.0236217
-0.00436637
-0.0133102
0.0242886
0.0122481
-0.0192203
-0.039568
-0.0400664
-0.0341829
-0.023574
-0.0402433
-0.0193531
-0.0336921
0.00748885
0.00540135
0.0145171
0.0127602
-0.00700791
0.00643603
0.00236512
0.00117684
0.0134792
0.00704914
0.0129184
0.00424863
-0.00711912
-0.0149883
-0.0143277
-0.0179301
0.00327354
-0.00474326
0.00651869
0.00238502
0.00398903
0.00598378
0.00767017
0.00937728
0.0106032
0.0104922
0.00852694
0.001096
0.00750819
0.00400515
0.000304994
0.00627289
0.00147513
0.00299737
0.000112122
0.000322753
0.000827343
0.00102543
0.00104261
0.00637543
5.81625e-05
-4.29504e-08
-0.00579585
-0.00444131
0.00822335
0.00424412
0.000615353
0.00028929
0.00114965
0.00200148
-0.00395494
-0.00116906
2.90644e-05
5.45837e-07
-0.000420911
-0.00250119
0.00063677
-4.9117e-06
0.000181373
0.000603568
-0.000178785
-0.000383902
-0.00392101
-0.00145053
-0.00311108
-0.001705
-0.00996188
-0.0128168
0.0013845
0.00387795
0.00256137
0.356988
0.129628
0.0859127
0.143553
-0.00814378
0.00579404
-0.000718701
0.00554869
0.0103633
0.00445507
-0.000191421
-0.00069105
-0.00610994
-0.00762479
-0.00278883
-0.000835267
0.00151325
0.00261458
0.0178137
0.0140343
-0.0083599
0.0021296
-0.0136111
-0.015417
0.000856681
0.00027098
0.000100419
0.000539988
0.000504491
2.68347e-05
4.34924e-06
4.54038e-07
-3.82566e-09
0.000318689
0.000121826
0.000677694
0.00215049
1.30456e-05
3.77256e-05
2.20546e-06
1.21045e-07
1.84171e-07
0.000864705
0.00166236
0.000376517
0.000136767
1.33977e-06
7.62475e-08
5.86706e-05
1.2104e-05
0.00086515
0.00039786
0.00209455
0.00334838
7.52684e-06
0.000160247
3.50665e-05
2.96977
1.81852
0.00101455
0.00145416
0.00118924
-0.0246897
0.0591692
0.105816
3.47236
1.5971
-0.00383285
0.00570405
-0.015033
0.0222709
-0.112404
0.173846
4.43084
3.77801
4.6027
4.65452
4.67093
1.55036
-0.0158635
-0.040503
4.50748
4.61845
2.98523
4.08869
1.29523
0.0981975
-0.00641761
-0.0024862
-0.00132003
-0.00405583
9.90124e-06
-1.80832e-05
7.19436e-05
-0.000138525
0.000938111
-8.69091e-05
7.16588e-05
-2.79774e-05
3.96853e-05
-0.000198013
0.00030834
-0.00193673
-0.000797332
0.00248437
3.93408e-06
-0.00254188
0.00398546
0.000734163
0.00263651
0.00730262
0.000101615
-7.77534e-05
4.57263e-06
-0.00415332
0.00035061
-3.61709e-05
0.00106559
0.000377877
2.56634e-06
0.000127903
-0.000113753
-0.000344943
-0.00157615
-0.000211675
1.03598e-05
5.62988e-05
-6.22318e-05
-0.000389602
4.50876e-05
-0.000506298
-0.000234353
-9.571e-06
3.32428e-05
-0.017304
-0.0389271
5.01938e-06
-3.69341e-05
-3.55633e-05
-0.000749563
-0.0115217
-0.000752272
-0.00326401
-0.00134337
-0.00291476
-0.00115861
-0.000123438
0.0017741
-0.00175703
0.000145532
0.000545678
-0.000901409
-0.00114707
2.44398e-05
-1.82489e-05
-7.24087e-05
7.17066e-06
5.37426e-06
-8.47374e-07
1.30762e-06
8.6146e-07
1.50369e-05
-3.00002e-08
2.57898e-08
-9.08677e-07
2.39589e-07
-2.96773e-08
0.000121236
-7.66263e-05
0.000295331
0.000674053
5.32218e-07
7.6936e-05
-1.1405e-05
4.57745e-06
2.54698e-08
-5.37854e-09
2.94536e-05
0.000239227
-3.50421e-05
8.09043e-05
-2.34012e-05
1.88251e-07
-4.11907e-07
2.04216e-07
1.35043e-06
-1.52132e-06
2.10833e-05
-8.83331e-07
-1.51685e-07
-4.06163e-07
4.24073e-08
-1.1002e-07
1.5659e-07
1.42232e-07
4.70713e-08
-2.69155e-08
-1.80938e-06
-3.16521e-07
-4.08005e-07
7.47298e-07
2.66222e-07
4.00011e-07
-3.47197e-08
5.36912e-06
3.94268e-06
2.2583e-06
-2.38581e-06
-8.84833e-06
1.0249e-06
-2.93577e-07
-1.3108e-05
-1.83871e-05
-1.11207e-05
1.07568e-05
-6.50985e-05
-6.56125e-06
-1.9911e-09
-1.17279e-08
-4.80078e-08
1.38632e-09
1.46917e-09
-8.56668e-09
1.8025e-08
-1.57003e-08
2.82323e-08
2.35395e-07
-5.63005e-08
-4.19436e-09
-7.3514e-10
-8.53935e-09
5.70228e-09
-2.7079e-09
5.2052e-10
1.80117e-06
-7.37736e-06
-1.41235e-07
2.07968e-07
-9.82772e-07
5.45304e-08
-3.31212e-09
-1.40911e-07
-5.43664e-07
-2.12166e-08
-1.59876e-08
-6.7686e-09
3.47134e-09
-1.47613e-09
-5.25805e-10
-3.61403e-08
-2.44696e-08
6.34443e-08
-1.60549e-08
-5.79027e-09
-1.63301e-09
-5.61493e-10
0
4.02977e-10
2.22388e-10
-1.73161e-08
-8.5506e-09
-8.94083e-10
-4.31145e-09
1.32146e-09
1.19259e-09
-2.86261e-08
-1.2435e-08
-3.09597e-08
-1.43694e-08
1.69848e-09
1.28899e-09
-3.76531e-09
-2.69918e-10
-4.19856e-08
-2.6393e-08
-3.59831e-08
-2.54775e-08
-6.86731e-10
1.22734e-08
-3.08086e-09
1.15711e-08
0
-2.1533e-10
0
0
0
-1.59548e-10
0
0
0
0
0
0
-6.35831e-09
0
0
0
0
8.83245e-10
-4.99829e-10
-3.3212e-09
-4.48693e-10
3.20835e-09
4.97209e-10
-4.37659e-10
0
2.58534e-10
-1.15408e-10
-1.76688e-10
0
0
0
0
