# vtk DataFile Version 2.0
Unstructured Grid by M++
ASCII
DATASET UNSTRUCTURED_GRID
POINTS 1089 float
  0.968750   0.906250 0
  0.968750   0.937500 0
  1.000000   0.906250 0
  1.000000   0.937500 0
  1.000000   0.968750 0
  0.906250   0.906250 0
  0.906250   0.875000 0
  0.906250   0.812500 0
  0.906250   0.843750 0
  0.937500   0.906250 0
  0.937500   0.937500 0
  0.937500   0.843750 0
  0.937500   0.875000 0
  0.968750   0.875000 0
  0.968750   0.656250 0
  0.968750   0.687500 0
  1.000000   0.656250 0
  1.000000   0.625000 0
  1.000000   0.687500 0
  0.906250   0.656250 0
  0.906250   0.687500 0
  0.906250   0.625000 0
  0.906250   0.531250 0
  0.906250   0.562500 0
  0.906250   0.593750 0
  0.937500   0.656250 0
  0.937500   0.687500 0
  0.937500   0.531250 0
  0.937500   0.562500 0
  0.937500   0.593750 0
  0.937500   0.625000 0
  0.968750   0.625000 0
  0.968750   0.593750 0
  1.000000   0.593750 0
  0.968750   0.562500 0
  1.000000   0.562500 0
  1.000000   0.531250 0
  0.968750   0.531250 0
  0.781250   1.000000 0
  0.812500   0.781250 0
  0.812500   0.812500 0
  0.875000   0.843750 0
  0.875000   0.812500 0
  0.875000   0.875000 0
  0.781250   0.781250 0
  0.843750   0.843750 0
  0.843750   0.812500 0
  0.875000   0.781250 0
  0.843750   0.781250 0
  0.781250   0.750000 0
  0.781250   0.718750 0
  0.781250   0.687500 0
  0.812500   0.750000 0
  0.812500   0.718750 0
  0.812500   0.531250 0
  0.812500   0.687500 0
  0.812500   0.656250 0
  0.812500   0.562500 0
  0.812500   0.593750 0
  0.812500   0.625000 0
  0.875000   0.687500 0
  0.875000   0.656250 0
  0.875000   0.593750 0
  0.875000   0.562500 0
  0.875000   0.625000 0
  0.781250   0.531250 0
  0.781250   0.562500 0
  0.781250   0.625000 0
  0.781250   0.593750 0
  0.781250   0.656250 0
  0.843750   0.656250 0
  0.843750   0.593750 0
  0.843750   0.562500 0
  0.843750   0.625000 0
  0.843750   0.687500 0
  0.843750   0.750000 0
  0.875000   0.531250 0
  0.843750   0.531250 0
  0.656250   0.906250 0
  0.656250   0.937500 0
  0.656250   1.000000 0
  0.656250   0.968750 0
  0.687500   1.000000 0
  0.687500   0.968750 0
  0.687500   0.937500 0
  0.718750   0.937500 0
  0.718750   0.968750 0
  0.718750   1.000000 0
  0.656250   0.781250 0
  0.656250   0.812500 0
  0.656250   0.843750 0
  0.656250   0.875000 0
  0.750000   0.968750 0
  0.750000   1.000000 0
  0.750000   0.656250 0
  0.750000   0.625000 0
  0.687500   0.656250 0
  0.687500   0.687500 0
  0.687500   0.625000 0
  0.718750   0.656250 0
  0.718750   0.687500 0
  0.718750   0.718750 0
  0.656250   0.531250 0
  0.656250   0.562500 0
  0.656250   0.656250 0
  0.656250   0.687500 0
  0.656250   0.750000 0
  0.656250   0.718750 0
  0.656250   0.625000 0
  0.656250   0.593750 0
  0.750000   0.687500 0
  0.750000   0.718750 0
  0.750000   0.750000 0
  0.687500   0.531250 0
  0.687500   0.562500 0
  0.687500   0.593750 0
  0.718750   0.625000 0
  0.750000   0.531250 0
  0.718750   0.531250 0
  0.750000   0.562500 0
  0.718750   0.562500 0
  0.718750   0.593750 0
  0.750000   0.593750 0
  0.562500   1.000000 0
  0.562500   0.968750 0
  0.562500   0.937500 0
  0.562500   0.906250 0
  0.562500   0.812500 0
  0.562500   0.843750 0
  0.562500   0.875000 0
  0.625000   0.937500 0
  0.625000   0.906250 0
  0.562500   0.781250 0
  0.625000   0.875000 0
  0.531250   1.000000 0
  0.531250   0.968750 0
  0.531250   0.937500 0
  0.531250   0.812500 0
  0.531250   0.875000 0
  0.531250   0.843750 0
  0.531250   0.906250 0
  0.593750   0.906250 0
  0.593750   0.843750 0
  0.593750   0.875000 0
  0.593750   0.812500 0
  0.625000   0.843750 0
  0.625000   0.812500 0
  0.593750   0.937500 0
  0.625000   1.000000 0
  0.593750   1.000000 0
  0.593750   0.968750 0
  0.625000   0.968750 0
  0.625000   0.781250 0
  0.593750   0.781250 0
  0.562500   0.531250 0
  0.562500   0.750000 0
  0.562500   0.718750 0
  0.562500   0.687500 0
  0.562500   0.656250 0
  0.562500   0.562500 0
  0.562500   0.593750 0
  0.562500   0.625000 0
  0.625000   0.687500 0
  0.625000   0.656250 0
  0.625000   0.593750 0
  0.625000   0.562500 0
  0.625000   0.625000 0
  0.531250   0.531250 0
  0.531250   0.750000 0
  0.531250   0.718750 0
  0.531250   0.687500 0
  0.531250   0.562500 0
  0.531250   0.625000 0
  0.531250   0.593750 0
  0.531250   0.656250 0
  0.593750   0.656250 0
  0.593750   0.593750 0
  0.593750   0.562500 0
  0.593750   0.625000 0
  0.593750   0.687500 0
  0.625000   0.750000 0
  0.593750   0.750000 0
  0.593750   0.718750 0
  0.625000   0.718750 0
  0.625000   0.531250 0
  0.593750   0.531250 0
  0.968750   0.406250 0
  0.968750   0.437500 0
  0.968750   0.468750 0
  0.968750   0.500000 0
  1.000000   0.406250 0
  1.000000   0.375000 0
  1.000000   0.437500 0
  1.000000   0.468750 0
  1.000000   0.500000 0
  0.906250   0.500000 0
  0.906250   0.406250 0
  0.906250   0.437500 0
  0.906250   0.281250 0
  0.906250   0.312500 0
  0.906250   0.343750 0
  0.906250   0.375000 0
  0.937500   0.406250 0
  0.937500   0.500000 0
  0.937500   0.468750 0
  0.937500   0.437500 0
  0.937500   0.281250 0
  0.937500   0.312500 0
  0.937500   0.343750 0
  0.937500   0.375000 0
  0.968750   0.375000 0
  1.000000   0.281250 0
  0.968750   0.281250 0
  1.000000   0.312500 0
  0.968750   0.312500 0
  0.968750   0.343750 0
  1.000000   0.343750 0
  0.968750   0.125000 0
  0.968750   0.156250 0
  0.968750   0.187500 0
  1.000000   0.000000 0
  1.000000   0.156250 0
  1.000000   0.125000 0
  1.000000   0.187500 0
  1.000000   0.218750 0
  0.531250   0.781250 0
  1.000000   0.250000 0
  0.906250   0.250000 0
  0.906250   0.218750 0
  0.937500   0.250000 0
  0.937500   0.218750 0
  0.968750   0.250000 0
  0.906250   0.031250 0
  0.906250   0.000000 0
  0.906250   0.062500 0
  0.906250   0.093750 0
  0.906250   0.125000 0
  0.937500   0.156250 0
  0.937500   0.031250 0
  0.937500   0.000000 0
  0.937500   0.062500 0
  0.937500   0.093750 0
  0.937500   0.125000 0
  1.000000   0.031250 0
  0.968750   0.031250 0
  0.968750   0.000000 0
  1.000000   0.062500 0
  0.968750   0.062500 0
  0.968750   0.093750 0
  1.000000   0.093750 0
  0.781250   0.312500 0
  0.781250   0.343750 0
  0.812500   0.500000 0
  0.812500   0.468750 0
  0.812500   0.437500 0
  0.812500   0.281250 0
  0.812500   0.312500 0
  0.812500   0.343750 0
  0.812500   0.375000 0
  0.875000   0.281250 0
  0.875000   0.406250 0
  0.875000   0.343750 0
  0.875000   0.312500 0
  0.875000   0.375000 0
  0.843750   0.281250 0
  0.843750   0.312500 0
  0.843750   0.375000 0
  0.843750   0.343750 0
  0.781250   0.500000 0
  0.781250   0.468750 0
  0.781250   0.437500 0
  0.781250   0.406250 0
  0.875000   0.500000 0
  0.843750   0.500000 0
  0.843750   0.468750 0
  0.875000   0.468750 0
  0.781250   0.281250 0
  0.843750   0.218750 0
  0.843750   0.250000 0
  0.843750   0.187500 0
  0.843750   0.156250 0
  0.875000   0.218750 0
  0.875000   0.250000 0
  0.875000   0.187500 0
  0.812500   0.062500 0
  0.812500   0.250000 0
  0.812500   0.218750 0
  0.812500   0.187500 0
  0.812500   0.156250 0
  0.812500   0.125000 0
  0.843750   0.093750 0
  0.843750   0.062500 0
  0.875000   0.125000 0
  0.875000   0.093750 0
  0.875000   0.062500 0
  0.781250   0.250000 0
  0.781250   0.218750 0
  0.781250   0.187500 0
  0.093750   0.937500 0
  0.125000   1.000000 0
  0.937500   0.718750 0
  0.250000   0.000000 0
  0.093750   0.968750 0
  0.125000   0.968750 0
  0.000000   0.718750 0
  0.000000   0.750000 0
  0.125000   0.531250 0
  0.125000   0.562500 0
  0.093750   0.531250 0
  0.031250   0.750000 0
  0.125000   0.468750 0
  0.156250   0.468750 0
  0.500000   0.375000 0
  0.156250   0.500000 0
  0.406250   0.406250 0
  0.406250   0.437500 0
  0.406250   0.500000 0
  0.406250   0.468750 0
  0.406250   0.375000 0
  0.750000   0.312500 0
  0.437500   0.406250 0
  0.437500   0.500000 0
  0.437500   0.468750 0
  0.437500   0.437500 0
  0.468750   0.437500 0
  0.468750   0.468750 0
  0.406250   0.281250 0
  0.406250   0.312500 0
  0.062500   0.375000 0
  0.406250   0.343750 0
  0.062500   0.406250 0
  0.500000   0.468750 0
  0.500000   0.500000 0
  0.437500   0.281250 0
  0.437500   0.312500 0
  0.437500   0.343750 0
  0.093750   0.406250 0
  0.437500   0.375000 0
  0.093750   0.437500 0
  0.468750   0.375000 0
  0.125000   0.437500 0
  0.500000   0.281250 0
  0.468750   0.281250 0
  0.500000   0.312500 0
  0.468750   0.312500 0
  0.468750   0.343750 0
  0.500000   0.343750 0
  0.843750   0.906250 0
  0.156250   0.187500 0
  0.468750   0.187500 0
  0.468750   0.218750 0
  0.468750   0.250000 0
  0.406250   0.031250 0
  0.750000   0.812500 0
  0.062500   0.093750 0
  0.406250   0.000000 0
  0.750000   0.781250 0
  0.062500   0.062500 0
  0.500000   0.187500 0
  0.500000   0.218750 0
  0.500000   0.250000 0
  0.437500   0.031250 0
  0.781250   0.812500 0
  0.093750   0.093750 0
  0.437500   0.000000 0
  0.437500   0.062500 0
  0.781250   0.843750 0
  0.093750   0.125000 0
  0.406250   0.187500 0
  0.406250   0.250000 0
  0.406250   0.218750 0
  0.437500   0.250000 0
  0.437500   0.218750 0
  0.437500   0.187500 0
  0.500000   0.000000 0
  0.500000   0.031250 0
  0.468750   0.031250 0
  0.468750   0.000000 0
  0.500000   0.062500 0
  0.468750   0.062500 0
  0.812500   0.843750 0
  0.125000   0.125000 0
  0.812500   0.875000 0
  0.125000   0.156250 0
  0.500000   0.093750 0
  0.843750   0.875000 0
  0.156250   0.156250 0
  1.000000   1.000000 0
  0.312500   0.281250 0
  0.656250   0.218750 0
  0.437500   0.156250 0
  0.312500   0.500000 0
  0.437500   0.125000 0
  0.312500   0.468750 0
  0.437500   0.093750 0
  0.781250   0.031250 0
  0.312500   0.437500 0
  0.312500   0.406250 0
  0.312500   0.312500 0
  0.312500   0.343750 0
  0.312500   0.375000 0
  0.375000   0.437500 0
  0.375000   0.406250 0
  0.375000   0.343750 0
  0.718750   0.281250 0
  0.375000   0.375000 0
  0.968750   1.000000 0
  0.281250   0.281250 0
  0.406250   0.156250 0
  0.281250   0.500000 0
  0.406250   0.125000 0
  0.281250   0.468750 0
[...]
CELL_DATA 1024
SCALARS scalar_value float 1
LOOKUP_TABLE default
0.0887127
0.0942254
0.0116381
0.0493678
0.0040541
-0.000659718
0.117404
0.0614749
0.0607726
0.0394004
0.0100264
0.0049225
0.0128618
0.0577713
0.0434451
-7.12947e-05
0.0523517
0.0672508
0.0244846
0.0753267
0.0604679
0.0608807
0.0698461
0.0225078
-0.0292094
0.0225583
0.028344
0.0356852
0.0273787
-0.0160139
-0.0666204
0.0524058
-0.0135938
-0.00575763
-0.00236138
-0.00133595
-0.00737694
-0.00371577
-0.00763431
-0.00369417
-0.00140596
-0.00159136
-0.0137775
-0.00816167
-0.0125631
-0.0323668
-0.0200552
-0.0338977
0.00838865
-0.0167963
-0.0529472
-0.059112
-0.0150418
-0.00046719
-0.00811245
-0.0017037
-0.00739921
-0.00446946
-0.0171517
-0.000847956
-0.0149362
-0.00925577
-0.00358788
-0.000156997
0.262161
0.113691
-0.00292002
0.0256814
-0.150631
0.0211266
0.172807
0.422055
0.0143826
-0.00576995
0.0579466
0.057679
-0.0398175
-0.0671261
-0.00696945
0.0575705
0.104137
-0.0528006
0.0113521
0.0164899
0.0196496
0.0148985
0.0813896
-0.0261235
-0.0531593
-0.0358107
0.0680769
-0.0166764
-0.0654298
0.0865079
0.098794
-0.0127427
0.0194662
0.0151022
-0.026553
-0.010691
-0.0187021
0.0307461
0.0203328
0.0128099
-0.0115045
0.000316986
0.0281968
-0.0234377
0.0280249
0.00385417
0.161147
0.00186068
0.00186083
-0.0379655
0.0357083
0.00253415
0.0211814
-0.0451819
-0.024937
-0.0220796
0.0148528
-0.00888467
-0.0196217
-0.0021574
-0.00132106
-0.00674146
0.0534012
-0.0227279
0.103643
1.74413
2.53708
0.0696365
-0.00213674
0.0816748
0.0743096
-0.0611006
0.0433801
0.658495
1.1267
-0.0938491
0.000493482
0.00560054
-0.167217
0.0849753
0.779357
-0.0451884
0.0118176
0.17002
0.501491
0.290833
0.0688782
0.131064
-0.0685442
-0.0119963
0.55571
0.77985
0.0703105
-0.00379557
0.0286174
-0.032651
0.00585657
0.00896068
-0.0353858
4.6143
4.5962
4.6851
4.46732
2.71868
0.590973
-0.0160257
4.71327
4.32938
1.5559
4.0638
-0.127677
-0.0438756
0.0180293
0.00238458
-0.0280249
-0.00692627
-0.0124406
0.117199
0.324495
0.0112966
-0.00992869
0.00985391
-0.0120096
-0.0208062
-0.0185645
0.517351
2.37254
3.94124
4.25986
4.3124
4.33456
3.81602
3.54024
3.89259
3.78662
4.22708
4.34917
4.55718
4.61256
4.03833
3.01464
2.23311
2.99628
1.2606
0.288493
2.9965
3.52795
1.0973
0.126899
2.76876
-0.125675
0.0119063
0.474477
0.00611555
2.18125
1.48528
2.4978
3.18227
1.15497
1.51502
0.602842
0.363681
2.46925
1.12544
0.195873
-0.14549
-0.170745
-0.101221
-0.0314535
-0.163883
-0.199047
0.00680152
0.116247
0.915773
4.11046
2.24264
0.91055
0.228836
1.33032
3.97793
3.83655
3.30712
3.37593
4.36699
4.54136
4.4718
4.58803
4.28589
2.29404
2.02333
3.40765
3.31268
-0.000115455
-0.000581767
-1.14516e-06
-1.43111e-06
2.48762e-06
3.46743e-07
-7.20709e-07
-1.74776e-05
-1.41269e-08
1.99409e-08
3.72966e-08
9.44125e-08
-0.000312441
-2.40838e-05
-2.6735e-08
-6.50545e-08
9.03945e-07
1.24875e-06
-4.27194e-06
-7.37968e-05
2.21844e-07
3.52113e-07
1.78465e-07
3.17636e-07
-4.60955e-09
-4.73893e-09
-1.265e-08
-3.05304e-08
-2.05322e-09
-3.03428e-09
1.93914e-09
-3.21693e-09
2.52172e-10
-1.17252e-09
0
0
-1.45999e-07
-3.41764e-07
6.14216e-08
-2.57414e-08
-9.77879e-08
7.9862e-08
-2.56418e-07
3.11084e-07
1.1708e-08
-1.1647e-07
-9.26183e-09
-2.78371e-08
2.06047e-08
2.85222e-08
1.21166e-09
9.4034e-09
-4.50111e-09
-4.83366e-09
2.5376e-09
1.54629e-08
-6.79101e-09
1.6939e-09
-3.46651e-10
1.31154e-09
-1.98407e-09
0
3.40742e-09
0
-0.00138252
0.00102931
0.0259952
-0.00346607
-0.000354442
-0.000582041
-0.000169849
0.000193526
0.0735267
0.00374717
0.738433
-0.261045
-0.0034658
0.011599
-0.00382582
-0.000540743
7.36628e-08
-0.000997194
0.0129339
-0.000207352
9.34176e-05
-1.73079e-05
-3.89697e-06
-2.99291e-05
3.88788e-05
-2.23538e-05
2.80861e-05
-0.000476276
0.000247243
-2.9653e-06
-1.23483e-06
-9.7704e-06
5.74599e-05
2.8217e-05
-3.90092e-05
-1.6027e-05
-4.44031e-06
-4.81355e-06
-3.50094e-06
3.88155e-06
9.9463e-07
2.00692e-06
-9.30954e-05
-4.09808e-05
-5.71051e-06
-1.39815e-05
-2.30832e-06
-4.874e-06
-8.84205e-06
-9.39716e-06
2.47285e-06
-8.28566e-07
-4.09103e-07
5.93834e-07
4.17054e-07
-1.67762e-06
-1.58654e-06
1.7168e-06
-7.09104e-07
2.73413e-07
-6.25008e-08
3.94493e-07
-3.627e-07
-3.37401e-07
1.07419
2.94357
-0.0560428
-0.000498384
2.41858
4.54454
3.18003
0.0703032
5.35693e-05
4.46573
2.79547
4.75143
4.02893
4.20915
4.39289
4.52204
4.60943
4.65988
4.61343
1.85575
0.0159628
0.0861933
0.0615691
0.0137119
-0.000617908
0.00110623
0.654847
0.594158
-0.00270764
0.449445
0.100582
-0.00351725
-0.00127866
-0.000511827
-0.000341946
-0.000118737
-0.000649576
-0.000220734
0.000214991
-0.000294482
-0.00112779
-0.000421993
-8.69567e-05
-0.00088149
-0.000346881
0.00479446
-0.00111176
-0.00118128
-0.0032897
-0.0017411
0.00330765
0.00999308
-0.00141947
-0.0013355
-4.36878e-05
-7.85904e-05
-0.000166
-0.000235161
-0.000152678
6.5239e-06
-4.17962e-06
-0.000322
-1.29401e-05
-1.29147e-05
4.22601
4.63934
2.13617
3.38318
4.67273
4.54512
4.42649
4.61119
3.73124
2.7144
4.18424
4.70829
0.937654
4.04102
0.893253
-0.00156032
1.4502
-0.0143974
4.41008
4.66544
3.76633
2.90257
4.36624
4.61703
0.0151407
4.64989
4.62819
4.63816
2.43887
4.22586
3.7474
-0.0210433
0.00560602
0.00154045
-0.0157577
0.00400894
0.00110067
0.000718377
1.07922e-05
0.000173293
-0.000559663
-0.000838724
-0.00352209
-0.00232319
0.00070739
-0.00351691
-0.000439143
0.00110253
0.000817457
0.00159387
0.000772843
0.00185799
0.000292903
0.000117211
-0.000698475
-0.000220279
0.000672386
0.00151421
-0.00435332
-0.0157525
-0.00460587
0.00304704
0.000282113
3.08185e-05
4.68346
4.21251
0.0638708
0.772287
0.859856
0.211556
0.464773
0.671846
0.733098
4.09257
4.40741
4.54127
4.59812
4.36863
4.70897
4.66879
-0.429537
-0.101531
-0.512616
0.00358751
1.85479
0.993752
2.79071
3.59745
0.468805
0.273904
3.82732
-0.436274
-0.256026
-0.0668131
0.0521787
0.0498513
4.67118
1.39804
2.55336
-0.0757903
-0.0444112
1.98815
2.8464
1.07809
0.377762
0.0281418
-0.0665018
3.62134
3.63316
4.58965
4.53134
4.54355
4.63041
4.26577
3.9112
4.48037
4.83985
4.98067
4.58097
4.36204
4.92096
4.99791
-0.0953796
-0.0147043
0.278024
0.354061
0.35825
0.495509
-0.00144297
0.00133173
0.000931234
0.00202685
0.00168512
0.00123025
0.00399671
0.00837985
0.0139879
-0.00463646
-0.00451425
-0.00299114
0.00665695
0.00103101
0.00615222
0.0019905
0.0122427
0.0148583
0.00743531
0.0015438
0.0132607
0.0208642
-0.000250773
0.00523612
0.0269646
0.0139807
0.0373218
0.0458986
-0.0236318
-0.023142
0.00175288
-0.0111412
0.0180007
0.0208943
0.000642126
0.000504872
-0.00120531
0.0235844
0.0239255
0.0173819
0.00694809
0.00172074
0.00505256
-0.00368839
-0.00186794
-0.00501035
0.00320578
0.00424328
0.0198624
0.0168403
0.0197457
0.0237194
-0.0355776
-0.0572528
0.0187722
-0.00260001
-0.194091
-0.0151771
-0.0345989
-0.010967
-0.015669
-0.0810649
-0.219561
-0.156831
-0.00315461
-0.00557006
0.00520185
0.00643957
-0.000150961
0.00255358
-0.00800445
-0.0131695
0.00136605
0.003096
-0.000882865
-0.00389287
-0.0322281
-0.0204551
-0.00185402
-0.00666785
-0.0158722
0.0220334
-0.00109088
-0.00185749
-0.00730493
0.00415516
-0.00196181
0.0059198
0.000990278
0.00419444
0.000676188
-0.00143839
0.00420957
0.00429667
0.000717636
0.000135511
0.00194833
0.00289966
0.000386992
0.000699475
0.00134028
0.00145881
-0.00144648
0.00104813
0.000477592
0.000135175
-0.00640992
-0.00521954
0.00546799
0.00351432
0.00136988
0.00103653
0.00178525
0.00220748
-0.00384576
-0.00120878
0.00020137
3.6263e-05
-0.000330413
-0.00278629
0.00165027
0.000629136
0.00160632
0.00229122
0.00143407
0.00148602
-0.00455132
-0.00075229
-0.0154455
-0.0103133
0.0579038
-0.0115652
-0.00278971
-0.000798286
-0.000379403
0.102385
0.306406
0.171404
0.103888
-0.00565047
0.222958
-0.0107649
-0.00323055
0.000605231
0.00158239
0.00079263
0.0003746
-0.00689534
-0.0332515
-0.00627734
-0.0022516
0.000785408
0.00132999
-0.00427296
-0.00990657
-0.0161303
-0.0135645
-0.025871
0.0545973
0.000149891
0.000239953
0.000120716
0.000299243
0.000331119
4.6085e-05
1.18421e-05
2.32338e-06
2.78308e-07
0.000233707
0.000130775
0.000183882
-0.000755194
2.81366e-05
6.61337e-05
8.4534e-06
3.2709e-06
8.41342e-06
0.000639185
0.00102799
0.000379916
0.000193649
8.22372e-06
1.55845e-06
0.000113978
3.63888e-05
0.000921303
0.000575767
0.00171435
0.00201208
5.10999e-05
0.000322285
0.000115546
3.55246
3.71202
-0.0077568
-0.00126705
-0.00509901
0.0257286
0.0991634
1.96669
4.28922
3.70282
0.00847786
-0.00439655
-0.0426285
-0.00735411
0.078376
1.83842
4.15536
3.51113
4.75959
4.60138
4.68085
2.96536
0.0093773
0.0215177
4.5715
4.60522
3.75863
4.49463
2.12672
0.371951
0.0125262
0.000401199
-2.18015e-06
0.00599502
0.000102267
-1.45126e-05
-0.000118575
0.000254468
0.00926298
9.84931e-05
-0.000128752
0.000103989
0.000166637
0.000152537
0.00062447
0.00203375
0.000450055
0.00102747
0.000622261
0.0046652
-2.44614e-05
-0.000817002
0.000762136
-0.00190736
-0.00025942
-1.62811e-05
-1.78514e-05
-0.00325089
-0.000341271
0.00246239
9.07444e-05
-1.88529e-05
2.09579e-05
-0.000104925
0.000493106
0.000151988
0.00654052
0.00240737
8.54501e-05
-3.84633e-05
0.000585689
0.00246869
-4.29553e-05
0.000222736
4.63831e-05
-5.093e-05
-4.00779e-05
0.045485
-0.0703968
-5.92617e-06
3.45633e-05
5.69234e-06
0.00169954
-0.0350101
0.00589448
0.0364953
-0.00358875
-0.000402003
-0.00225602
-0.00134469
-0.0014768
0.00232758
-0.000168188
-0.000459995
-0.000943039
0.000223914
1.85963e-05
3.33688e-06
7.61875e-05
-6.92212e-05
-3.62372e-06
-1.87712e-06
7.08524e-07
1.00361e-05
-3.20905e-05
5.28118e-07
-1.14189e-06
7.03399e-07
-4.38603e-07
3.64422e-08
-6.30398e-05
8.83194e-05
-0.000306015
-0.00126471
5.80206e-05
-7.81964e-05
-1.8143e-05
2.74358e-06
-1.55942e-07
2.903e-09
1.44569e-05
-0.000211749
-2.46397e-05
-3.57402e-05
2.55758e-05
5.14227e-06
-3.78122e-07
-1.4848e-05
-1.93406e-06
3.64967e-07
-1.69295e-05
1.3023e-05
-1.37591e-07
3.02698e-06
-8.44454e-08
1.46004e-07
-2.30495e-07
2.10537e-08
3.32234e-07
1.23288e-07
2.94181e-05
3.10029e-06
5.09583e-07
-9.99017e-07
-3.27928e-07
-4.13599e-07
4.14364e-07
-4.08845e-06
1.54788e-07
-1.47846e-06
2.9502e-06
0.000147758
1.85567e-05
2.2295e-07
1.30916e-05
1.99698e-05
1.47099e-05
-1.66469e-05
0.000610054
9.45481e-05
5.79623e-09
9.04985e-09
8.53495e-09
-2.17429e-09
-1.74601e-09
6.51602e-09
-9.39555e-09
5.076e-10
3.33953e-09
-2.96618e-07
1.02983e-07
5.18102e-09
1.59596e-09
1.86433e-08
-1.25947e-08
8.58127e-10
-1.57962e-08
-1.74756e-06
6.46916e-06
2.1753e-07
-4.10845e-07
6.74792e-07
-6.94858e-08
-4.9192e-09
-1.91768e-07
1.56077e-06
-2.61839e-08
1.75296e-07
4.21784e-08
-1.09277e-08
3.34021e-09
5.52501e-10
-3.65644e-08
3.9951e-07
1.52786e-06
-5.16813e-09
1.13803e-08
8.88523e-09
1.70414e-09
-2.6379e-09
-1.61552e-09
0
9.08646e-08
1.74107e-08
2.56942e-09
3.46522e-09
2.19856e-09
1.09961e-09
1.45768e-08
1.14224e-07
6.70149e-08
2.95897e-08
-3.1664e-09
-3.01038e-09
4.56276e-09
0
7.93386e-08
5.39702e-08
4.65679e-08
5.17636e-07
-4.05722e-09
-1.09793e-08
-3.73494e-09
-1.67464e-08
0
4.07817e-10
0
1.28351e-10
1.19638e-10
0
1.51428e-10
0
0
0
0
0
5.1545e-09
0
0
0
0
-3.86017e-10
5.30666e-10
1.09889e-09
5.01442e-10
8.38196e-10
-4.40857e-10
-1.41597e-09
0
-1.77326e-10
-7.1209e-10
3.71637e-10
0
0
0
0
