# vtk DataFile Version 2.0
Unstructured Grid by M++
ASCII
DATASET UNSTRUCTURED_GRID
POINTS 1089 float
  0.968750   0.906250 0
  0.968750   0.937500 0
  1.000000   0.906250 0
  1.000000   0.937500 0
  1.000000   0.968750 0
  0.906250   0.906250 0
  0.906250   0.875000 0
  0.906250   0.812500 0
  0.906250   0.843750 0
  0.937500   0.906250 0
  0.937500   0.937500 0
  0.937500   0.843750 0
  0.937500   0.875000 0
  0.968750   0.875000 0
  0.968750   0.656250 0
  0.968750   0.687500 0
  1.000000   0.656250 0
  1.000000   0.625000 0
  1.000000   0.687500 0
  0.906250   0.656250 0
  0.906250   0.687500 0
  0.906250   0.625000 0
  0.906250   0.531250 0
  0.906250   0.562500 0
  0.906250   0.593750 0
  0.937500   0.656250 0
  0.937500   0.687500 0
  0.937500   0.531250 0
  0.937500   0.562500 0
  0.937500   0.593750 0
  0.937500   0.625000 0
  0.968750   0.625000 0
  0.968750   0.593750 0
  1.000000   0.593750 0
  0.968750   0.562500 0
  1.000000   0.562500 0
  1.000000   0.531250 0
  0.968750   0.531250 0
  0.781250   1.000000 0
  0.812500   0.781250 0
  0.812500   0.812500 0
  0.875000   0.843750 0
  0.875000   0.812500 0
  0.875000   0.875000 0
  0.781250   0.781250 0
  0.843750   0.843750 0
  0.843750   0.812500 0
  0.875000   0.781250 0
  0.843750   0.781250 0
  0.781250   0.750000 0
  0.781250   0.718750 0
  0.781250   0.687500 0
  0.812500   0.750000 0
  0.812500   0.718750 0
  0.812500   0.531250 0
  0.812500   0.687500 0
  0.812500   0.656250 0
  0.812500   0.562500 0
  0.812500   0.593750 0
  0.812500   0.625000 0
  0.875000   0.687500 0
  0.875000   0.656250 0
  0.875000   0.593750 0
  0.875000   0.562500 0
  0.875000   0.625000 0
  0.781250   0.531250 0
  0.781250   0.562500 0
  0.781250   0.625000 0
  0.781250   0.593750 0
  0.781250   0.656250 0
  0.843750   0.656250 0
  0.843750   0.593750 0
  0.843750   0.562500 0
  0.843750   0.625000 0
  0.843750   0.687500 0
  0.843750   0.750000 0
  0.875000   0.531250 0
  0.843750   0.531250 0
  0.656250   0.906250 0
  0.656250   0.937500 0
  0.656250   1.000000 0
  0.656250   0.968750 0
  0.687500   1.000000 0
  0.687500   0.968750 0
  0.687500   0.937500 0
  0.718750   0.937500 0
  0.718750   0.968750 0
  0.718750   1.000000 0
  0.656250   0.781250 0
  0.656250   0.812500 0
  0.656250   0.843750 0
  0.656250   0.875000 0
  0.750000   0.968750 0
  0.750000   1.000000 0
  0.750000   0.656250 0
  0.750000   0.625000 0
  0.687500   0.656250 0
  0.687500   0.687500 0
  0.687500   0.625000 0
  0.718750   0.656250 0
  0.718750   0.687500 0
  0.718750   0.718750 0
  0.656250   0.531250 0
  0.656250   0.562500 0
  0.656250   0.656250 0
  0.656250   0.687500 0
  0.656250   0.750000 0
  0.656250   0.718750 0
  0.656250   0.625000 0
  0.656250   0.593750 0
  0.750000   0.687500 0
  0.750000   0.718750 0
  0.750000   0.750000 0
  0.687500   0.531250 0
  0.687500   0.562500 0
  0.687500   0.593750 0
  0.718750   0.625000 0
  0.750000   0.531250 0
  0.718750   0.531250 0
  0.750000   0.562500 0
  0.718750   0.562500 0
  0.718750   0.593750 0
  0.750000   0.593750 0
  0.562500   1.000000 0
  0.562500   0.968750 0
  0.562500   0.937500 0
  0.562500   0.906250 0
  0.562500   0.812500 0
  0.562500   0.843750 0
  0.562500   0.875000 0
  0.625000   0.937500 0
  0.625000   0.906250 0
  0.562500   0.781250 0
  0.625000   0.875000 0
  0.531250   1.000000 0
  0.531250   0.968750 0
  0.531250   0.937500 0
  0.531250   0.812500 0
  0.531250   0.875000 0
  0.531250   0.843750 0
  0.531250   0.906250 0
  0.593750   0.906250 0
  0.593750   0.843750 0
  0.593750   0.875000 0
  0.593750   0.812500 0
  0.625000   0.843750 0
  0.625000   0.812500 0
  0.593750   0.937500 0
  0.625000   1.000000 0
  0.593750   1.000000 0
  0.593750   0.968750 0
  0.625000   0.968750 0
  0.625000   0.781250 0
  0.593750   0.781250 0
  0.562500   0.531250 0
  0.562500   0.750000 0
  0.562500   0.718750 0
  0.562500   0.687500 0
  0.562500   0.656250 0
  0.562500   0.562500 0
  0.562500   0.593750 0
  0.562500   0.625000 0
  0.625000   0.687500 0
  0.625000   0.656250 0
  0.625000   0.593750 0
  0.625000   0.562500 0
  0.625000   0.625000 0
  0.531250   0.531250 0
  0.531250   0.750000 0
  0.531250   0.718750 0
  0.531250   0.687500 0
  0.531250   0.562500 0
  0.531250   0.625000 0
  0.531250   0.593750 0
  0.531250   0.656250 0
  0.593750   0.656250 0
  0.593750   0.593750 0
  0.593750   0.562500 0
  0.593750   0.625000 0
  0.593750   0.687500 0
  0.625000   0.750000 0
  0.593750   0.750000 0
  0.593750   0.718750 0
  0.625000   0.718750 0
  0.625000   0.531250 0
  0.593750   0.531250 0
  0.968750   0.406250 0
  0.968750   0.437500 0
  0.968750   0.468750 0
  0.968750   0.500000 0
  1.000000   0.406250 0
  1.000000   0.375000 0
  1.000000   0.437500 0
  1.000000   0.468750 0
  1.000000   0.500000 0
  0.906250   0.500000 0
  0.906250   0.406250 0
  0.906250   0.437500 0
  0.906250   0.281250 0
  0.906250   0.312500 0
  0.906250   0.343750 0
  0.906250   0.375000 0
  0.937500   0.406250 0
  0.937500   0.500000 0
  0.937500   0.468750 0
  0.937500   0.437500 0
  0.937500   0.281250 0
  0.937500   0.312500 0
  0.937500   0.343750 0
  0.937500   0.375000 0
  0.968750   0.375000 0
  1.000000   0.281250 0
  0.968750   0.281250 0
  1.000000   0.312500 0
  0.968750   0.312500 0
  0.968750   0.343750 0
  1.000000   0.343750 0
  0.968750   0.125000 0
  0.968750   0.156250 0
  0.968750   0.187500 0
  1.000000   0.000000 0
  1.000000   0.156250 0
  1.000000   0.125000 0
  1.000000   0.187500 0
  1.000000   0.218750 0
  0.531250   0.781250 0
  1.000000   0.250000 0
  0.906250   0.250000 0
  0.906250   0.218750 0
  0.937500   0.250000 0
  0.937500   0.218750 0
  0.968750   0.250000 0
  0.906250   0.031250 0
  0.906250   0.000000 0
  0.906250   0.062500 0
  0.906250   0.093750 0
  0.906250   0.125000 0
  0.937500   0.156250 0
  0.937500   0.031250 0
  0.937500   0.000000 0
  0.937500   0.062500 0
  0.937500   0.093750 0
  0.937500   0.125000 0
  1.000000   0.031250 0
  0.968750   0.031250 0
  0.968750   0.000000 0
  1.000000   0.062500 0
  0.968750   0.062500 0
  0.968750   0.093750 0
  1.000000   0.093750 0
  0.781250   0.312500 0
  0.781250   0.343750 0
  0.812500   0.500000 0
  0.812500   0.468750 0
  0.812500   0.437500 0
  0.812500   0.281250 0
  0.812500   0.312500 0
  0.812500   0.343750 0
  0.812500   0.375000 0
  0.875000   0.281250 0
  0.875000   0.406250 0
  0.875000   0.343750 0
  0.875000   0.312500 0
  0.875000   0.375000 0
  0.843750   0.281250 0
  0.843750   0.312500 0
  0.843750   0.375000 0
  0.843750   0.343750 0
  0.781250   0.500000 0
  0.781250   0.468750 0
  0.781250   0.437500 0
  0.781250   0.406250 0
  0.875000   0.500000 0
  0.843750   0.500000 0
  0.843750   0.468750 0
  0.875000   0.468750 0
  0.781250   0.281250 0
  0.843750   0.218750 0
  0.843750   0.250000 0
  0.843750   0.187500 0
  0.843750   0.156250 0
  0.875000   0.218750 0
  0.875000   0.250000 0
  0.875000   0.187500 0
  0.812500   0.062500 0
  0.812500   0.250000 0
  0.812500   0.218750 0
  0.812500   0.187500 0
  0.812500   0.156250 0
  0.812500   0.125000 0
  0.843750   0.093750 0
  0.843750   0.062500 0
  0.875000   0.125000 0
  0.875000   0.093750 0
  0.875000   0.062500 0
  0.781250   0.250000 0
  0.781250   0.218750 0
  0.781250   0.187500 0
  0.093750   0.937500 0
  0.125000   1.000000 0
  0.937500   0.718750 0
  0.250000   0.000000 0
  0.093750   0.968750 0
  0.125000   0.968750 0
  0.000000   0.718750 0
  0.000000   0.750000 0
  0.125000   0.531250 0
  0.125000   0.562500 0
  0.093750   0.531250 0
  0.031250   0.750000 0
  0.125000   0.468750 0
  0.156250   0.468750 0
  0.500000   0.375000 0
  0.156250   0.500000 0
  0.406250   0.406250 0
  0.406250   0.437500 0
  0.406250   0.500000 0
  0.406250   0.468750 0
  0.406250   0.375000 0
  0.750000   0.312500 0
  0.437500   0.406250 0
  0.437500   0.500000 0
  0.437500   0.468750 0
  0.437500   0.437500 0
  0.468750   0.437500 0
  0.468750   0.468750 0
  0.406250   0.281250 0
  0.406250   0.312500 0
  0.062500   0.375000 0
  0.406250   0.343750 0
  0.062500   0.406250 0
  0.500000   0.468750 0
  0.500000   0.500000 0
  0.437500   0.281250 0
  0.437500   0.312500 0
  0.437500   0.343750 0
  0.093750   0.406250 0
  0.437500   0.375000 0
  0.093750   0.437500 0
  0.468750   0.375000 0
  0.125000   0.437500 0
  0.500000   0.281250 0
  0.468750   0.281250 0
  0.500000   0.312500 0
  0.468750   0.312500 0
  0.468750   0.343750 0
  0.500000   0.343750 0
  0.843750   0.906250 0
  0.156250   0.187500 0
  0.468750   0.187500 0
  0.468750   0.218750 0
  0.468750   0.250000 0
  0.406250   0.031250 0
  0.750000   0.812500 0
  0.062500   0.093750 0
  0.406250   0.000000 0
  0.750000   0.781250 0
  0.062500   0.062500 0
  0.500000   0.187500 0
  0.500000   0.218750 0
  0.500000   0.250000 0
  0.437500   0.031250 0
  0.781250   0.812500 0
  0.093750   0.093750 0
  0.437500   0.000000 0
  0.437500   0.062500 0
  0.781250   0.843750 0
  0.093750   0.125000 0
  0.406250   0.187500 0
  0.406250   0.250000 0
  0.406250   0.218750 0
  0.437500   0.250000 0
  0.437500   0.218750 0
  0.437500   0.187500 0
  0.500000   0.000000 0
  0.500000   0.031250 0
  0.468750   0.031250 0
  0.468750   0.000000 0
  0.500000   0.062500 0
  0.468750   0.062500 0
  0.812500   0.843750 0
  0.125000   0.125000 0
  0.812500   0.875000 0
  0.125000   0.156250 0
  0.500000   0.093750 0
  0.843750   0.875000 0
  0.156250   0.156250 0
  1.000000   1.000000 0
  0.312500   0.281250 0
  0.656250   0.218750 0
  0.437500   0.156250 0
  0.312500   0.500000 0
  0.437500   0.125000 0
  0.312500   0.468750 0
  0.437500   0.093750 0
  0.781250   0.031250 0
  0.312500   0.437500 0
  0.312500   0.406250 0
  0.312500   0.312500 0
  0.312500   0.343750 0
  0.312500   0.375000 0
  0.375000   0.437500 0
  0.375000   0.406250 0
  0.375000   0.343750 0
  0.718750   0.281250 0
  0.375000   0.375000 0
  0.968750   1.000000 0
  0.281250   0.281250 0
  0.406250   0.156250 0
  0.281250   0.500000 0
  0.406250   0.125000 0
  0.281250   0.468750 0
[...]
CELL_DATA 1024
SCALARS scalar_value float 1
LOOKUP_TABLE default
0.0738605
-0.0136979
0.0395693
0.0690846
0.0142906
0.108229
0.0539119
0.0546508
0.00366693
0.0552138
0.0398782
0.0539946
0.00981683
0.0448268
0.118586
-0.0196073
-0.0104667
0.0962979
0.0882895
0.0784401
0.0448257
0.0639442
0.0565023
0.00707512
0.0215916
-0.0239538
0.0643876
0.0170508
0.0278263
-0.00335597
-0.0782904
0.206858
-0.000831175
0.0144776
-0.00464301
-0.00341283
-0.0082892
-0.00551533
-0.000675044
0.0111792
-0.00442637
-0.00482842
-0.0204462
-0.00420159
0.0380403
-0.00143474
-0.0156151
-0.017107
0.000665481
-0.0547589
-0.050651
-0.0354331
-0.00400361
-0.0011651
-0.00608303
-0.00327765
-0.00789523
-0.00649369
-0.00846589
-0.00162192
-0.0112266
-0.00991835
-0.00519509
-0.00038747
0.146018
0.322701
0.0021228
-0.00152869
-0.0648223
-0.0493646
0.0630254
0.405935
-0.0072386
0.00395609
0.086813
0.23497
0.0699162
0.00435748
-0.0666844
-0.0192192
0.0971353
-0.0451079
0.0149405
-0.0156887
0.0668722
0.0585948
0.0940708
0.0170705
-0.0803084
0.000775147
0.0658649
0.0306702
-0.0934798
-0.0101735
0.0649054
-0.0377362
0.00395925
0.00822766
-0.0287955
0.0290626
-0.00891619
0.0224619
0.0115433
0.0233443
-0.00871326
-0.0145163
0.0733205
-0.0365394
0.0165003
0.0430737
0.172817
0.00290225
0.00265006
-0.0314645
0.0317539
-0.0188714
0.0223702
-0.0213122
-0.0119855
-0.0353967
0.0316128
-0.0126696
-0.022754
0.00763328
-0.00395279
0.0415642
0.114531
-0.0179529
0.09786
2.61062
2.12032
0.0335281
-0.0196602
0.10487
-0.0452511
-0.0396217
1.46708
0.351628
0.920792
-0.063346
0.0394914
0.0400766
0.00327902
0.36689
1.30713
-0.00958694
0.00587854
0.235759
0.667401
0.036141
0.0869758
0.102156
-0.0440965
0.000104276
1.06589
0.303999
0.0901716
-0.025178
-0.116181
-0.0745977
-7.88898e-06
0.900659
0.399775
4.61557
4.60726
4.66179
4.53019
3.39516
1.66637
-0.018406
4.70666
4.53126
2.03158
4.30548
0.0585474
-0.0827518
0.0262744
-0.0178827
-0.00220631
-0.0261629
-0.0104103
0.0593697
0.574171
-0.00039074
-0.00708417
-0.00277294
-0.0246656
-0.0179095
-0.0888851
0.776984
2.83117
4.27451
4.396
4.16576
4.29273
3.36815
3.13427
3.33452
2.97928
4.44346
4.55023
4.72122
4.71222
3.78517
2.62829
1.85081
2.61229
0.912207
0.0989613
3.73802
3.66702
2.61653
1.11137
3.11223
0.120074
0.409047
1.6415
0.261134
3.50106
3.06996
3.65563
4.29072
2.8588
3.06638
0.235395
0.102955
1.80962
0.532507
0.0156747
-0.109708
-0.132751
-0.077283
-0.0633876
-0.169039
-0.163781
-0.0937451
-0.0131427
0.618005
4.32806
3.6185
2.8484
0.0951064
1.08
3.67894
4.47619
2.59676
2.68344
4.10272
4.4722
4.26902
4.51468
4.02897
1.70773
1.57402
2.72377
2.6605
-0.000425926
-0.00191321
-1.301e-06
6.41551e-07
4.50467e-07
-2.42351e-05
-3.36259e-06
-5.40735e-05
-6.29041e-08
4.97848e-08
8.46417e-09
-7.65261e-08
-0.000968585
-9.42482e-05
3.23422e-07
1.83885e-07
-4.25422e-08
-3.41054e-06
-1.75805e-05
-0.000226797
-1.99086e-06
-3.49393e-07
-4.61101e-09
-5.16081e-07
3.81308e-08
-1.41353e-08
-3.03294e-09
2.37587e-08
-6.14268e-10
-3.22268e-10
3.38479e-09
2.23389e-09
-1.49993e-10
1.51243e-09
1.87108e-10
0
-2.24187e-07
3.93695e-07
-9.50488e-08
1.35427e-08
1.68196e-07
-1.92885e-07
2.74161e-07
-1.50581e-08
7.785e-08
2.53091e-08
1.95957e-09
3.11888e-09
-1.46112e-08
1.23576e-08
-8.62801e-08
-1.97592e-09
-1.02397e-08
6.49257e-09
-3.87092e-09
-2.52533e-09
1.10576e-08
-3.39376e-10
1.36161e-09
-1.22535e-09
-2.78754e-10
-5.65966e-10
-2.66293e-09
3.01835e-09
-0.00616203
-0.000533645
0.0501349
-0.0136064
0.000175976
-0.000131583
-0.000495831
-0.000221682
0.524666
0.000842548
1.29317
-0.379259
-0.00358931
-0.0127487
0.00115421
0.00113498
-2.1808e-06
-0.00429675
0.0250695
-0.000892447
-3.17175e-05
1.55184e-05
-8.00515e-06
-3.07542e-05
-4.92648e-05
-0.000173739
-9.87453e-06
-0.00172558
-0.000578498
-4.71879e-06
1.29967e-05
5.15609e-06
-3.65757e-05
-5.57935e-05
-0.000386964
2.30329e-06
-6.11866e-06
3.94443e-06
-3.64819e-06
-3.88062e-06
-9.95919e-07
-2.36473e-06
2.2641e-05
-6.48914e-06
-1.5893e-05
-8.44773e-07
-1.65768e-06
1.04231e-07
-1.55254e-06
2.85685e-05
-4.50807e-06
1.48668e-06
-1.76638e-06
6.28399e-07
-1.67411e-06
1.96173e-06
-2.0067e-07
-2.21577e-06
1.4204e-06
3.33883e-07
-3.02206e-09
1.54751e-07
1.6588e-06
-5.49114e-07
2.32894
3.8055
0.189138
0.0178919
3.27897
4.64358
3.24994
0.416907
0.0117728
4.65244
3.48523
4.7134
4.29743
4.41757
4.5089
4.45462
4.60484
4.65078
4.60197
3.11772
0.338355
0.0367169
0.070596
0.0245632
-0.00276434
0.000943724
0.951193
1.20046
0.00490917
0.724469
0.189514
-0.00146019
-0.00129208
-3.46723e-05
0.000131054
6.14804e-05
0.000268914
3.80365e-05
-0.000894204
-0.00058471
0.00135105
-0.000176907
-5.53374e-05
-0.000111957
-0.000311928
-0.00127346
-0.00547033
-0.000956634
-0.0021139
-0.0031546
-0.00301993
0.00415967
-5.03259e-05
-0.000643936
-0.00263858
3.06007e-06
9.82838e-05
-2.02854e-05
0.000157207
3.60824e-06
-1.55288e-07
-0.000513525
-5.39226e-05
3.53664e-05
4.14536
4.58752
1.8605
3.2292
4.68725
4.59693
4.30634
4.6781
3.61499
2.51914
4.45018
4.62355
1.50597
4.36005
1.5234
-0.0178436
2.22481
-0.00151645
4.54428
4.66236
3.5633
2.61858
4.27498
4.58978
-0.0047919
4.6472
4.59969
4.64174
3.12579
4.09165
3.49759
0.0718953
0.00810585
0.00248226
0.00549649
0.00970893
0.000932154
0.000237577
-3.88489e-05
0.000240091
0.0010014
0.00183594
-0.00270144
0.00373677
-0.00508205
-0.00679114
-0.00129708
-0.000372534
-0.00941535
-0.00431339
0.000605699
0.00151252
0.000162011
9.45574e-05
0.000291853
-0.000177108
0.0016228
0.00245637
0.000943177
-0.00908483
-0.00186782
0.00186316
0.000661779
0.000303534
4.53815
4.03634
0.471319
1.13611
1.28038
0.69311
0.956377
1.10442
1.10319
4.37122
4.03477
4.23869
4.64645
4.52476
4.63233
4.46411
-0.387744
-0.0751129
-0.472063
0.344756
1.6468
0.835234
2.56934
3.3922
0.358284
0.179844
4.25906
-0.421767
-0.287312
-0.153386
-0.0698887
-0.0763797
4.57038
1.04049
2.25896
0.203967
0.242461
2.43127
3.2574
1.47399
0.769007
0.415911
0.280399
4.14669
4.08007
4.66172
4.57308
4.66238
4.75428
4.39993
4.16931
4.33046
4.82792
4.93016
4.63559
4.42065
4.82047
4.93177
-0.158914
0.0318844
0.340336
0.104489
0.387135
0.54082
0.00691247
0.00364482
0.00355082
0.00539313
0.00452679
0.00457559
0.00573503
0.00531702
0.00242561
-8.96422e-05
-0.000929866
0.00229394
0.000840123
8.92314e-05
-0.00202931
-0.00534568
0.0159038
0.0178568
0.0134627
0.0115278
0.012364
0.0228698
0.00906733
0.00756853
0.0574473
0.0505284
0.0621385
0.0637785
-0.00344177
0.0142736
0.0437422
0.0335055
0.000862815
0.00411305
-0.00425628
-0.00555157
-0.00392122
0.00960081
0.0135687
0.011236
0.00534407
0.00274739
0.00704968
-0.00449169
-0.00101208
-0.00475705
0.00424127
0.00531429
0.0187395
0.00932511
0.00826621
0.0106474
-0.0423639
-0.0537236
0.00636987
-0.0134995
-0.226145
0.00263543
-0.0259533
0.00721992
-0.00249025
-0.0842603
-0.257891
-0.175646
-0.00734969
-0.00845136
-0.00180261
0.000323758
0.00157027
-0.000716791
-0.0125911
-0.0111199
-0.00385584
-0.000161369
-0.0049977
-0.00805885
-0.0106838
-0.0406872
-0.00659976
-0.0296006
0.0255121
0.0275139
-0.00555005
-0.00777556
-0.00691945
0.00138125
-0.00462426
0.0015743
-0.00294321
-0.000382139
-0.00487429
-0.00236429
-0.00151419
0.00104685
0.000306686
-0.00379254
0.0014498
0.00167754
0.000349367
0.000586135
0.00104047
0.00108973
-0.00195143
-0.00248191
0.000484995
0.000153536
-0.00404004
-0.00326888
0.0016367
0.00165951
0.00119979
0.000966654
0.00142516
0.00144427
-0.00207065
-0.000588954
0.000199405
4.24908e-05
3.71177e-05
-0.00166471
0.00162531
0.000722944
0.00166533
0.00222681
0.00178871
0.00202114
-0.00283602
0.000233472
-0.00457722
-0.016396
0.152156
0.0757618
-0.0080396
-0.0025073
-0.000324662
0.125793
0.0987225
0.207072
-0.0440071
-0.0241685
0.474415
0.0027337
0.00692203
-0.00281774
-0.000501947
0.000292037
-0.00130589
-0.0309185
-0.00233
-0.00415172
-0.00462063
0.000201534
-2.04982e-05
-0.00682338
-0.0105427
-0.0311932
-0.0157865
0.0581898
0.164599
-0.000204928
0.000127009
7.78898e-05
-7.44603e-05
0.000141851
3.58433e-05
9.42144e-06
1.86331e-06
5.92452e-07
6.83083e-05
3.61919e-06
0.00038268
0.00252628
-2.00092e-05
-2.79303e-05
-8.46952e-06
-4.29166e-06
8.30445e-06
0.000339375
0.000229556
0.00021623
0.000132549
7.83173e-06
1.72185e-06
9.17661e-05
3.20322e-05
0.000570594
0.000424571
0.000780321
0.000399903
4.91894e-05
0.000263096
0.000104001
3.79973
4.04762
0.00417054
-0.00174519
-0.0118306
0.00449004
0.679388
3.14594
4.45617
4.1168
0.0111692
-0.00979224
-0.0963297
0.00513367
0.661873
2.94668
4.08526
3.32754
4.72193
4.64166
4.59128
3.59902
0.0180938
0.213377
4.57505
4.69647
4.08889
4.5399
2.57958
0.594242
0.0020569
0.00855274
-0.000376374
0.000253735
-1.93947e-05
1.70108e-05
-9.35595e-05
0.000125346
-0.00229017
-7.55666e-05
-3.57112e-05
4.21071e-05
0.000222454
0.000299191
0.000538448
0.00224462
-0.00184327
-0.00269624
-0.000761716
0.0102152
-0.00190039
-0.00177469
-0.00309825
-0.0059485
-0.000387614
6.93999e-05
-5.57018e-05
0.00508866
0.00287254
0.0064561
-0.000117405
-0.000152427
8.58516e-05
-0.000121005
0.000599392
-4.93569e-05
0.00916496
0.00367327
0.000198468
7.95748e-05
0.000884554
0.00333417
1.6593e-05
5.65555e-05
0.000126108
3.02944e-05
-6.47602e-05
0.142301
-0.0431666
-1.54706e-05
9.85136e-06
5.2975e-05
0.0248403
-0.0222991
0.0251486
0.125996
0.0136363
-0.000294706
-0.00278127
-0.0011175
-0.000585389
0.00182611
0.000482581
7.07936e-05
0.00152263
-0.000406846
-4.36538e-05
2.51296e-05
1.12067e-05
1.61913e-05
-4.1292e-06
6.32082e-06
-6.40242e-07
-5.20987e-06
5.58836e-07
-1.63897e-07
2.90264e-07
2.7916e-06
-1.84537e-06
2.0631e-07
-0.000219238
4.32827e-05
-0.000567565
-0.000470307
3.61007e-06
-7.48046e-05
9.23394e-06
-3.0159e-06
1.27872e-08
7.02045e-08
-4.9611e-05
3.95567e-05
5.14121e-05
-7.7467e-05
2.31917e-05
2.27128e-06
-1.20787e-06
-5.55625e-06
-5.37278e-07
3.48168e-06
-2.21669e-05
-1.73516e-05
1.27181e-06
6.89188e-06
-6.9161e-08
-1.66496e-07
2.54436e-07
-6.94697e-08
-7.45789e-07
-5.18218e-07
3.80256e-05
4.48112e-06
-3.28758e-07
4.35947e-08
-6.97304e-07
6.55698e-07
6.44881e-07
3.15245e-06
7.20748e-06
-1.47806e-06
5.51059e-07
0.000194567
3.01801e-05
3.48295e-07
8.9774e-06
-1.71887e-05
-1.15344e-05
1.1312e-05
0.000827798
0.000144168
0
-8.28951e-09
2.8112e-08
-1.69103e-10
1.55856e-09
-1.20955e-08
2.58404e-08
-1.73362e-08
1.43136e-08
-2.43261e-08
1.59799e-08
9.213e-10
7.08e-10
-3.47517e-08
9.14091e-09
2.59929e-08
-4.60522e-08
-1.36363e-06
6.86359e-06
2.24488e-07
-2.57722e-07
1.72453e-06
-1.18334e-07
2.98575e-08
6.53776e-07
-1.23485e-06
1.19056e-07
-2.63936e-07
-3.03417e-08
5.09433e-09
7.83342e-09
-9.72536e-10
1.35402e-07
-5.98868e-07
-2.10214e-06
-1.02607e-09
-2.62707e-08
-1.34963e-08
2.0391e-09
7.90912e-09
3.40665e-09
-2.03446e-09
-1.48e-07
-3.34876e-08
-3.0417e-09
-7.52199e-09
-1.33914e-09
-4.16494e-10
-3.55756e-08
2.59904e-07
-1.61073e-07
-6.54678e-08
6.2407e-09
2.65677e-09
1.07058e-08
1.37845e-08
-1.19686e-08
2.59199e-08
1.69622e-07
6.85638e-07
-1.67647e-08
-1.12899e-08
8.58896e-08
3.71146e-08
2.21491e-10
-1.17593e-09
4.96685e-10
0
-1.01085e-10
0
-2.51414e-10
0
0
0
0
0
3.92732e-09
0
0
0
0
2.0972e-10
9.8757e-10
-3.71764e-09
5.77147e-09
-3.41586e-09
0
1.77581e-09
0
1.98267e-10
-8.04413e-10
-5.12056e-10
0
0
-5.31469e-10
0
