# vtk DataFile Version 2.0
Unstructured Grid by M++
ASCII
DATASET UNSTRUCTURED_GRID
POINTS 1089 float
  0.968750   0.906250 0
  0.968750   0.937500 0
  1.000000   0.906250 0
  1.000000   0.937500 0
  1.000000   0.968750 0
  0.906250   0.906250 0
  0.906250   0.875000 0
  0.906250   0.812500 0
  0.906250   0.843750 0
  0.937500   0.906250 0
  0.937500   0.937500 0
  0.937500   0.843750 0
  0.937500   0.875000 0
  0.968750   0.875000 0
  0.968750   0.656250 0
  0.968750   0.687500 0
  1.000000   0.656250 0
  1.000000   0.625000 0
  1.000000   0.687500 0
  0.906250   0.656250 0
  0.906250   0.687500 0
  0.906250   0.625000 0
  0.906250   0.531250 0
  0.906250   0.562500 0
  0.906250   0.593750 0
  0.937500   0.656250 0
  0.937500   0.687500 0
  0.937500   0.531250 0
  0.937500   0.562500 0
  0.937500   0.593750 0
  0.937500   0.625000 0
  0.968750   0.625000 0
  0.968750   0.593750 0
  1.000000   0.593750 0
  0.968750   0.562500 0
  1.000000   0.562500 0
  1.000000   0.531250 0
  0.968750   0.531250 0
  0.781250   1.000000 0
  0.812500   0.781250 0
  0.812500   0.812500 0
  0.875000   0.843750 0
  0.875000   0.812500 0
  0.875000   0.875000 0
  0.781250   0.781250 0
  0.843750   0.843750 0
  0.843750   0.812500 0
  0.875000   0.781250 0
  0.843750   0.781250 0
  0.781250   0.750000 0
  0.781250   0.718750 0
  0.781250   0.687500 0
  0.812500   0.750000 0
  0.812500   0.718750 0
  0.812500   0.531250 0
  0.812500   0.687500 0
  0.812500   0.656250 0
  0.812500   0.562500 0
  0.812500   0.593750 0
  0.812500   0.625000 0
  0.875000   0.687500 0
  0.875000   0.656250 0
  0.875000   0.593750 0
  0.875000   0.562500 0
  0.875000   0.625000 0
  0.781250   0.531250 0
  0.781250   0.562500 0
  0.781250   0.625000 0
  0.781250   0.593750 0
  0.781250   0.656250 0
  0.843750   0.656250 0
  0.843750   0.593750 0
  0.843750   0.562500 0
  0.843750   0.625000 0
  0.843750   0.687500 0
  0.843750   0.750000 0
  0.875000   0.531250 0
  0.843750   0.531250 0
  0.656250   0.906250 0
  0.656250   0.937500 0
  0.656250   1.000000 0
  0.656250   0.968750 0
  0.687500   1.000000 0
  0.687500   0.968750 0
  0.687500   0.937500 0
  0.718750   0.937500 0
  0.718750   0.968750 0
  0.718750   1.000000 0
  0.656250   0.781250 0
  0.656250   0.812500 0
  0.656250   0.843750 0
  0.656250   0.875000 0
  0.750000   0.968750 0
  0.750000   1.000000 0
  0.750000   0.656250 0
  0.750000   0.625000 0
  0.687500   0.656250 0
  0.687500   0.687500 0
  0.687500   0.625000 0
  0.718750   0.656250 0
  0.718750   0.687500 0
  0.718750   0.718750 0
  0.656250   0.531250 0
  0.656250   0.562500 0
  0.656250   0.656250 0
  0.656250   0.687500 0
  0.656250   0.750000 0
  0.656250   0.718750 0
  0.656250   0.625000 0
  0.656250   0.593750 0
  0.750000   0.687500 0
  0.750000   0.718750 0
  0.750000   0.750000 0
  0.687500   0.531250 0
  0.687500   0.562500 0
  0.687500   0.593750 0
  0.718750   0.625000 0
  0.750000   0.531250 0
  0.718750   0.531250 0
  0.750000   0.562500 0
  0.718750   0.562500 0
  0.718750   0.593750 0
  0.750000   0.593750 0
  0.562500   1.000000 0
  0.562500   0.968750 0
  0.562500   0.937500 0
  0.562500   0.906250 0
  0.562500   0.812500 0
  0.562500   0.843750 0
  0.562500   0.875000 0
  0.625000   0.937500 0
  0.625000   0.906250 0
  0.562500   0.781250 0
  0.625000   0.875000 0
  0.531250   1.000000 0
  0.531250   0.968750 0
  0.531250   0.937500 0
  0.531250   0.812500 0
  0.531250   0.875000 0
  0.531250   0.843750 0
  0.531250   0.906250 0
  0.593750   0.906250 0
  0.593750   0.843750 0
  0.593750   0.875000 0
  0.593750   0.812500 0
  0.625000   0.843750 0
  0.625000   0.812500 0
  0.593750   0.937500 0
  0.625000   1.000000 0
  0.593750   1.000000 0
  0.593750   0.968750 0
  0.625000   0.968750 0
  0.625000   0.781250 0
  0.593750   0.781250 0
  0.562500   0.531250 0
  0.562500   0.750000 0
  0.562500   0.718750 0
  0.562500   0.687500 0
  0.562500   0.656250 0
  0.562500   0.562500 0
  0.562500   0.593750 0
  0.562500   0.625000 0
  0.625000   0.687500 0
  0.625000   0.656250 0
  0.625000   0.593750 0
  0.625000   0.562500 0
  0.625000   0.625000 0
  0.531250   0.531250 0
  0.531250   0.750000 0
  0.531250   0.718750 0
  0.531250   0.687500 0
  0.531250   0.562500 0
  0.531250   0.625000 0
  0.531250   0.593750 0
  0.531250   0.656250 0
  0.593750   0.656250 0
  0.593750   0.593750 0
  0.593750   0.562500 0
  0.593750   0.625000 0
  0.593750   0.687500 0
  0.625000   0.750000 0
  0.593750   0.750000 0
  0.593750   0.718750 0
  0.625000   0.718750 0
  0.625000   0.531250 0
  0.593750   0.531250 0
  0.968750   0.406250 0
  0.968750   0.437500 0
  0.968750   0.468750 0
  0.968750   0.500000 0
  1.000000   0.406250 0
  1.000000   0.375000 0
  1.000000   0.437500 0
  1.000000   0.468750 0
  1.000000   0.500000 0
  0.906250   0.500000 0
  0.906250   0.406250 0
  0.906250   0.437500 0
  0.906250   0.281250 0
  0.906250   0.312500 0
  0.906250   0.343750 0
  0.906250   0.375000 0
  0.937500   0.406250 0
  0.937500   0.500000 0
  0.937500   0.468750 0
  0.937500   0.437500 0
  0.937500   0.281250 0
  0.937500   0.312500 0
  0.937500   0.343750 0
  0.937500   0.375000 0
  0.968750   0.375000 0
  1.000000   0.281250 0
  0.968750   0.281250 0
  1.000000   0.312500 0
  0.968750   0.312500 0
  0.968750   0.343750 0
  1.000000   0.343750 0
  0.968750   0.125000 0
  0.968750   0.156250 0
  0.968750   0.187500 0
  1.000000   0.000000 0
  1.000000   0.156250 0
  1.000000   0.125000 0
  1.000000   0.187500 0
  1.000000   0.218750 0
  0.531250   0.781250 0
  1.000000   0.250000 0
  0.906250   0.250000 0
  0.906250   0.218750 0
  0.937500   0.250000 0
  0.937500   0.218750 0
  0.968750   0.250000 0
  0.906250   0.031250 0
  0.906250   0.000000 0
  0.906250   0.062500 0
  0.906250   0.093750 0
  0.906250   0.125000 0
  0.937500   0.156250 0
  0.937500   0.031250 0
  0.937500   0.000000 0
  0.937500   0.062500 0
  0.937500   0.093750 0
  0.937500   0.125000 0
  1.000000   0.031250 0
  0.968750   0.031250 0
  0.968750   0.000000 0
  1.000000   0.062500 0
  0.968750   0.062500 0
  0.968750   0.093750 0
  1.000000   0.093750 0
  0.781250   0.312500 0
  0.781250   0.343750 0
  0.812500   0.500000 0
  0.812500   0.468750 0
  0.812500   0.437500 0
  0.812500   0.281250 0
  0.812500   0.312500 0
  0.812500   0.343750 0
  0.812500   0.375000 0
  0.875000   0.281250 0
  0.875000   0.406250 0
  0.875000   0.343750 0
  0.875000   0.312500 0
  0.875000   0.375000 0
  0.843750   0.281250 0
  0.843750   0.312500 0
  0.843750   0.375000 0
  0.843750   0.343750 0
  0.781250   0.500000 0
  0.781250   0.468750 0
  0.781250   0.437500 0
  0.781250   0.406250 0
  0.875000   0.500000 0
  0.843750   0.500000 0
  0.843750   0.468750 0
  0.875000   0.468750 0
  0.781250   0.281250 0
  0.843750   0.218750 0
  0.843750   0.250000 0
  0.843750   0.187500 0
  0.843750   0.156250 0
  0.875000   0.218750 0
  0.875000   0.250000 0
  0.875000   0.187500 0
  0.812500   0.062500 0
  0.812500   0.250000 0
  0.812500   0.218750 0
  0.812500   0.187500 0
  0.812500   0.156250 0
  0.812500   0.125000 0
  0.843750   0.093750 0
  0.843750   0.062500 0
  0.875000   0.125000 0
  0.875000   0.093750 0
  0.875000   0.062500 0
  0.781250   0.250000 0
  0.781250   0.218750 0
  0.781250   0.187500 0
  0.093750   0.937500 0
  0.125000   1.000000 0
  0.937500   0.718750 0
  0.250000   0.000000 0
  0.093750   0.968750 0
  0.125000   0.968750 0
  0.000000   0.718750 0
  0.000000   0.750000 0
  0.125000   0.531250 0
  0.125000   0.562500 0
  0.093750   0.531250 0
  0.031250   0.750000 0
  0.125000   0.468750 0
  0.156250   0.468750 0
  0.500000   0.375000 0
  0.156250   0.500000 0
  0.406250   0.406250 0
  0.406250   0.437500 0
  0.406250   0.500000 0
  0.406250   0.468750 0
  0.406250   0.375000 0
  0.750000   0.312500 0
  0.437500   0.406250 0
  0.437500   0.500000 0
  0.437500   0.468750 0
  0.437500   0.437500 0
  0.468750   0.437500 0
  0.468750   0.468750 0
  0.406250   0.281250 0
  0.406250   0.312500 0
  0.062500   0.375000 0
  0.406250   0.343750 0
  0.062500   0.406250 0
  0.500000   0.468750 0
  0.500000   0.500000 0
  0.437500   0.281250 0
  0.437500   0.312500 0
  0.437500   0.343750 0
  0.093750   0.406250 0
  0.437500   0.375000 0
  0.093750   0.437500 0
  0.468750   0.375000 0
  0.125000   0.437500 0
  0.500000   0.281250 0
  0.468750   0.281250 0
  0.500000   0.312500 0
  0.468750   0.312500 0
  0.468750   0.343750 0
  0.500000   0.343750 0
  0.843750   0.906250 0
  0.156250   0.187500 0
  0.468750   0.187500 0
  0.468750   0.218750 0
  0.468750   0.250000 0
  0.406250   0.031250 0
  0.750000   0.812500 0
  0.062500   0.093750 0
  0.406250   0.000000 0
  0.750000   0.781250 0
  0.062500   0.062500 0
  0.500000   0.187500 0
  0.500000   0.218750 0
  0.500000   0.250000 0
  0.437500   0.031250 0
  0.781250   0.812500 0
  0.093750   0.093750 0
  0.437500   0.000000 0
  0.437500   0.062500 0
  0.781250   0.843750 0
  0.093750   0.125000 0
  0.406250   0.187500 0
  0.406250   0.250000 0
  0.406250   0.218750 0
  0.437500   0.250000 0
  0.437500   0.218750 0
  0.437500   0.187500 0
  0.500000   0.000000 0
  0.500000   0.031250 0
  0.468750   0.031250 0
  0.468750   0.000000 0
  0.500000   0.062500 0
  0.468750   0.062500 0
  0.812500   0.843750 0
  0.125000   0.125000 0
  0.812500   0.875000 0
  0.125000   0.156250 0
  0.500000   0.093750 0
  0.843750   0.875000 0
  0.156250   0.156250 0
  1.000000   1.000000 0
  0.312500   0.281250 0
  0.656250   0.218750 0
  0.437500   0.156250 0
  0.312500   0.500000 0
  0.437500   0.125000 0
  0.312500   0.468750 0
  0.437500   0.093750 0
  0.781250   0.031250 0
  0.312500   0.437500 0
  0.312500   0.406250 0
  0.312500   0.312500 0
  0.312500   0.343750 0
  0.312500   0.375000 0
  0.375000   0.437500 0
  0.375000   0.406250 0
  0.375000   0.343750 0
  0.718750   0.281250 0
  0.375000   0.375000 0
  0.968750   1.000000 0
  0.281250   0.281250 0
  0.406250   0.156250 0
  0.281250   0.500000 0
  0.406250   0.125000 0
  0.281250   0.468750 0
[...]
CELL_DATA 1024
SCALARS scalar_value float 1
LOOKUP_TABLE default
-0.00124182
0.0455308
-0.0259291
-0.0217814
0.114873
0.137942
0.0675942
-0.00276638
0.0277036
-0.0187743
-0.0271277
0.0745373
0.0681954
0.0415173
-0.0120127
0.010405
0.0340756
-0.0344814
-0.060384
-0.00994641
0.0192444
0.0338396
0.0521036
0.0581083
0.0303605
0.0272815
0.0482616
0.0329673
0.0771663
-0.0161324
0.0158871
-0.0393337
-0.018422
-0.0264521
0.000472221
0.000339147
-0.000227865
0.000550395
-0.00931463
-0.0190465
0.000534655
0.00082218
-0.000207282
-0.00383235
-0.0658129
-0.0437236
-0.0051313
-0.0186437
0.0124965
0.0435297
-0.00686715
-0.0210911
-0.0207938
8.81084e-05
-0.0013456
0.000199226
-0.000130569
0.000243442
-0.00964676
6.98952e-05
-0.0034903
-0.000698046
4.24836e-05
2.45338e-05
0.038196
-0.141103
0.00883511
0.218412
-0.0176149
0.0411009
0.369898
-0.0337511
0.157501
0.00484282
-0.0674034
0.0291556
-0.0209237
0.0487416
0.022067
0.0857948
0.0284262
0.0767787
-0.0252974
-0.0762399
-0.0428102
-0.00269297
-0.00565024
-0.026695
0.0501503
-0.066834
0.0381089
-0.0491913
0.0370514
0.12043
0.00584769
0.119625
0.0287866
0.00313264
0.0135955
-0.0632019
-0.00209776
-0.00341192
0.0206151
-0.0216457
0.00562643
0.0358832
-0.0500248
0.0577345
-0.00734434
-0.112042
0.112246
0.000433307
0.0010878
-0.00342313
0.0116533
0.0344151
-0.00164584
-0.0337856
-0.0246754
0.00615994
-0.00550106
-0.000375292
-0.00209983
-0.00634304
0.00665477
-0.0527665
-0.0538755
-0.0110872
-0.000824976
-0.0805715
0.371003
0.0440603
0.00767763
-0.0477423
-0.105584
-0.171628
0.0393921
0.88758
0.516622
-0.0209269
0.00938763
0.0910506
0.0447811
-0.0180608
0.0875557
0.23604
-0.0489171
0.0634079
0.146926
0.460635
-0.0491474
-0.00934138
0.607532
-0.0708675
0.123839
0.518586
0.0858615
0.108307
0.0656274
0.00722286
-0.00707704
-0.0429889
-0.0340498
4.52893
4.40647
4.70395
4.13059
1.69593
-0.029885
-0.011328
4.30083
3.02414
0.689226
3.20911
0.0103556
-0.00584627
-0.00117786
0.0201308
-0.0442889
0.0111719
-0.00325356
0.103623
0.306268
-0.0680181
-0.00767555
0.0112966
-0.0107165
-0.00498249
0.079482
0.0478462
1.82315
2.9409
2.22533
3.33956
2.62846
4.27425
3.97056
4.41775
4.43269
2.20149
2.18835
2.02446
2.24551
3.33957
1.49386
2.93638
3.50584
2.19326
1.08412
-0.0515521
0.626848
0.0338933
0.0918851
-0.0102436
0.0372531
0.0543268
-0.0505756
0.000622779
-0.172627
-0.0277503
0.0128523
0.157174
-0.00379144
0.0284638
1.82492
1.3734
3.63834
2.654
0.998634
-0.232824
-0.275987
-0.074611
0.297964
-0.0465798
-0.264838
0.597493
0.724345
1.66926
3.02773
0.393612
-0.0114816
0.660071
1.87275
3.71678
1.32965
4.25858
4.30267
4.52871
4.5604
4.64741
4.60248
4.57317
3.40553
2.90268
4.32788
4.23896
0.00012617
0.000243327
-5.51196e-07
2.54505e-07
2.23061e-06
4.44541e-05
1.52812e-06
6.0103e-06
-1.07183e-07
5.19687e-09
8.69481e-09
1.86557e-07
9.90174e-05
3.2002e-05
1.12467e-07
6.57073e-09
3.47486e-07
6.53894e-06
6.85261e-06
2.35431e-05
-7.00323e-07
4.78728e-07
5.82183e-08
1.01785e-06
4.18387e-08
-9.15958e-09
-1.10904e-08
1.90425e-08
-1.17194e-09
-8.38113e-10
6.44978e-09
3.66891e-09
-1.39251e-10
1.17089e-09
1.53067e-10
0
-2.23542e-07
3.35132e-07
-5.46999e-08
1.54859e-08
9.23207e-08
-8.98685e-08
1.42043e-07
-2.49092e-08
4.40064e-08
1.23948e-08
1.0529e-09
8.10199e-10
-7.75739e-09
1.24144e-08
-6.36034e-08
-1.78612e-10
-6.95647e-09
3.54051e-09
-2.47418e-09
-3.73987e-09
6.93701e-09
-4.71815e-10
8.12507e-10
-5.90383e-10
-4.15684e-10
-4.14195e-10
-1.49473e-09
1.85683e-09
0.00616375
0.000558401
0.00519412
0.00209693
0.000148073
-2.52612e-05
-0.000413439
-9.05491e-05
0.0108396
0.0160355
0.0499887
-0.0579143
-0.00216623
-0.00246553
0.00176601
0.00271877
9.21242e-07
0.000863149
0.0018486
0.00129337
0.000147194
1.61706e-05
2.2598e-06
-4.31757e-05
-8.75217e-06
0.000263137
1.95912e-05
0.000390069
0.000573348
-2.37642e-06
1.05884e-05
-3.18217e-07
4.43602e-05
-0.00018168
0.000253603
1.21312e-05
-2.24902e-06
5.05686e-06
-8.04518e-06
-8.73413e-07
-1.4603e-06
-1.00895e-06
-1.52189e-05
-1.36031e-05
-1.28389e-05
-1.86692e-05
-2.0053e-06
-3.10954e-07
-1.00647e-05
1.16492e-05
2.78522e-06
-7.87539e-07
-1.23997e-06
3.04337e-07
9.36773e-07
7.93846e-07
-8.71983e-07
-7.69963e-07
5.18325e-07
-1.36142e-07
2.04002e-08
8.32234e-08
1.076e-06
-3.76637e-07
-0.112356
0.446547
-0.0104948
-0.00487475
0.551544
3.87829
1.20845
-0.00672079
-0.00913945
3.90233
1.04832
4.51867
2.52898
3.35413
4.09298
4.60908
4.53557
4.64209
4.62736
0.0459311
0.0524854
0.0739263
0.0192153
-0.000472778
-0.00231948
0.00100626
0.250649
0.0504658
-0.00350678
0.112303
0.00520321
-0.000499619
-0.000587866
-0.000881935
0.000387227
0.000109616
0.000846397
-0.000501943
-0.00128323
-0.000228161
-0.000273731
0.000143911
3.42545e-05
0.000212571
4.4219e-05
-0.00717138
-0.00254198
-0.000345389
0.000482845
-0.00175059
-0.000146816
-0.00599415
0.00223353
0.003003
0.00201221
5.04593e-05
0.000119621
-5.39717e-05
6.65389e-05
-5.60239e-06
-2.04696e-06
3.62893e-05
-5.62304e-05
-6.83699e-06
4.40373
4.69654
2.6942
3.69707
4.62515
4.17294
4.60445
4.53688
4.0137
3.09838
3.28752
4.75739
0.201106
2.81124
0.152286
0.00525792
0.241853
0.0205998
3.72767
4.64992
4.13369
3.4457
4.52132
4.66838
0.00867872
4.61436
4.65128
4.63899
0.930881
4.44169
4.16325
0.0142303
-0.00623845
-0.00194926
-0.00556316
-0.0130723
-0.00104658
-0.000618145
1.99852e-05
-0.00027188
0.000805775
0.000755893
0.000985624
0.000381844
-0.00182813
0.00329711
-0.00390296
-0.00251637
0.0039748
0.00242947
-0.000825298
-0.00224054
-0.00025237
-7.91452e-05
0.000789456
0.000310302
-0.0023464
-0.0055566
-0.00445681
0.0106306
-0.000648688
-0.00638047
-0.000816232
-0.000267531
4.81838
4.36056
-0.0561692
0.0111211
0.0704522
-0.0381812
-0.00684193
0.0212658
0.0100494
2.92809
4.78603
4.81897
4.00178
3.41066
4.50172
4.76544
-0.544383
-0.244797
-0.532737
-0.0967792
2.01155
1.11362
2.96579
3.76928
0.554203
0.360707
2.65278
-0.336911
-0.0292427
0.270345
0.504397
0.468505
4.56006
2.12081
3.04876
-0.237112
-0.159699
1.22185
2.1936
0.47268
-0.0290641
-0.289286
-0.319451
2.5953
2.81193
4.39457
4.22673
4.03304
4.3001
3.67892
3.24774
4.54971
4.68885
4.90094
4.63675
4.65703
5.05836
5.07115
0.322991
0.0757668
0.190357
1.06843
0.226058
0.366885
0.000580213
0.00506582
0.00343518
0.00404335
0.00504143
8.59466e-05
-9.63256e-05
0.00529421
0.0169067
-0.00157271
-1.17605e-05
-0.000118917
0.0119404
0.00630864
0.0124705
0.00990498
-0.0117824
-0.0142361
-0.00695446
0.000829306
0.0147901
0.005446
0.011321
0.0175902
-0.0322677
-0.0242594
-0.0378719
-0.0398994
-0.00760083
-0.00123087
-0.0136942
-0.00538287
0.0266503
0.0287268
0.00716216
0.0083933
0.00369765
0.0268958
0.021493
0.0116242
0.00180406
-0.00190642
-0.00249528
-1.793e-05
-0.00181855
-0.00201576
-0.00109297
-0.000877603
0.00310953
0.00890592
0.0165338
0.0231564
-0.00253801
-0.0106525
0.0239028
0.0125752
-0.01252
-0.0398132
-0.0394029
-0.0343016
-0.02315
-0.0368224
-0.0096384
-0.0263172
0.00784448
0.00589449
0.0145774
0.012743
-0.00702975
0.00644172
0.00254018
0.00149475
0.0137461
0.00708049
0.0132963
0.00449392
-0.00779066
-0.0156858
-0.0141171
-0.0177512
0.00349774
-0.00371644
0.00672815
0.0020866
0.00351473
0.00591948
0.00795529
0.0093063
0.0107948
0.0105206
0.00867724
0.00114233
0.00744705
0.00385855
0.000242529
0.00637616
0.00140267
0.00291916
9.5057e-05
0.000291989
0.000772188
0.000969247
0.00109021
0.00644586
3.81429e-05
-4.54061e-06
-0.00559851
-0.00432049
0.00814449
0.00416119
0.000554685
0.000242735
0.0010781
0.00192928
-0.00384371
-0.00114155
2.08135e-05
-6.90391e-07
-0.000405442
-0.00239814
0.00056102
-2.74155e-05
0.000110697
0.000496319
-0.000235939
-0.000462067
-0.00375521
-0.00143748
-0.00285749
-0.00163377
-0.0118659
-0.0114925
0.00176396
0.0040924
0.00264411
0.377515
0.0987439
0.0855528
0.134339
-0.00609216
0.0102634
-0.00127024
0.00480782
0.0105796
0.00448198
-0.000241747
-0.000722499
-0.00588074
-0.00781056
-0.00265745
-0.000806855
0.0015102
0.00261379
0.0185895
0.015518
-0.00734428
0.00378791
-0.0131558
-0.015561
0.000882287
0.000263973
9.57841e-05
0.000540589
0.000498465
2.49116e-05
3.89893e-06
3.70592e-07
-2.29025e-08
0.000310911
0.00012178
0.000639906
0.00182933
1.48953e-05
4.09258e-05
3.09389e-06
6.44612e-07
-1.03753e-07
0.000851449
0.00165054
0.000364131
0.000128713
1.00441e-06
1.99871e-08
5.36387e-05
1.05147e-05
0.000834568
0.00037453
0.00205486
0.00332978
5.48475e-06
0.000146185
3.00628e-05
2.92849
1.70853
0.00137193
0.00227397
-0.000362206
-0.0228481
0.0576736
0.0822509
3.3934
1.49669
-0.00319158
0.00584095
-0.0112277
0.0210005
-0.11215
0.14167
4.44427
3.78973
4.58642
4.65882
4.66718
1.49363
-0.0166643
-0.0376924
4.4992
4.61666
2.95065
4.06267
1.26292
0.0904304
-0.00733897
-0.00225779
-0.00208299
-0.00424786
-3.84364e-07
-1.615e-05
8.05779e-05
-0.000148662
-0.000260611
-8.36631e-05
8.33964e-05
-3.3923e-05
5.74187e-05
-0.000189534
0.00036955
-0.00169482
-0.000924082
0.00198444
-3.6799e-05
-0.00272915
0.00373347
0.00064485
0.00219463
0.00683228
7.78807e-05
-7.56441e-05
-4.16672e-06
-0.00292103
0.00040624
0.0001497
0.000979585
0.000356444
-1.71927e-06
0.000128365
-0.000161037
-0.000407838
-0.00179373
-0.000261477
2.25367e-05
6.05431e-05
-5.52188e-05
-0.000443638
4.25866e-05
-0.000520042
-0.000212384
5.28642e-06
3.34519e-05
-0.0170593
-0.0375628
1.39942e-07
-3.90212e-05
-3.22941e-05
-0.000580273
-0.00996757
-0.00110003
-0.00305319
-0.00132255
-0.00286094
-0.00127642
8.74545e-05
0.00176471
-0.00167896
0.000281063
0.000586597
-0.000978808
-0.000970416
2.0498e-05
-1.8207e-05
-7.54175e-05
1.45413e-05
5.36106e-06
-2.94511e-07
1.35969e-06
4.70526e-09
1.7207e-05
-4.4685e-08
5.48757e-08
-1.06295e-06
2.22259e-07
-2.98587e-08
0.000102981
-8.22096e-05
0.000246362
0.000571759
-5.52781e-06
7.96578e-05
-8.66004e-06
4.27057e-06
2.81528e-08
-3.86912e-09
2.50249e-05
0.000253615
-2.80901e-05
8.08402e-05
-2.46555e-05
-1.45696e-07
-2.52114e-07
1.77787e-06
1.40891e-06
-1.31758e-06
1.99555e-05
-2.55462e-06
-1.22738e-07
-4.63857e-07
2.17802e-08
-1.20229e-07
1.44326e-07
1.4902e-07
6.55945e-08
-1.67262e-10
-2.2958e-06
-2.45347e-07
-4.48747e-07
7.24727e-07
1.80811e-07
4.51489e-07
3.81186e-08
5.31555e-06
4.39446e-06
1.82172e-06
-2.58325e-06
-1.16262e-05
1.4838e-06
-2.66665e-07
-1.1755e-05
-1.91044e-05
-1.33086e-05
1.20516e-05
-8.13375e-05
-1.00278e-05
-2.0433e-09
-6.68186e-09
-4.49119e-08
1.40458e-09
1.38581e-09
-8.77709e-09
1.87008e-08
-1.62722e-08
2.79988e-08
2.37167e-07
-5.8155e-08
-3.79476e-09
-4.74316e-10
-9.45053e-09
5.40743e-09
-2.43432e-09
-3.00279e-10
1.84778e-06
-7.1914e-06
-1.36504e-07
2.02388e-07
-9.3936e-07
5.11233e-08
-2.29898e-09
-8.81346e-08
-6.30835e-07
-1.7599e-08
-3.0753e-08
-8.54045e-09
4.07915e-09
-1.20297e-09
-5.43635e-10
-3.71821e-08
4.79511e-08
3.14397e-07
-1.57947e-08
-5.59592e-09
-1.66085e-09
-5.45341e-10
0
4.52633e-10
1.75418e-10
6.59843e-10
-4.27486e-09
-1.00503e-10
-2.84638e-09
1.56839e-09
1.15135e-09
-3.12752e-08
-1.89804e-08
-3.12706e-08
-1.34676e-08
2.09297e-09
1.19966e-09
-3.04232e-09
3.40159e-10
-4.11926e-08
-2.35231e-08
-3.87763e-08
-4.71173e-08
-2.54258e-09
1.13146e-08
4.79827e-10
1.30462e-08
0
-2.10438e-10
0
0
0
-1.282e-10
0
0
0
0
0
0
-5.80893e-09
0
0
0
0
8.95493e-10
-4.40244e-10
-3.72825e-09
-1.13277e-10
2.86025e-09
4.89243e-10
-5.51072e-10
0
2.25215e-10
-2.23864e-10
-1.21919e-10
0
0
0
0
