# vtk DataFile Version 2.0
Unstructured Grid by M++
ASCII
DATASET UNSTRUCTURED_GRID
POINTS 1089 float
  0.968750   0.906250 0
  0.968750   0.937500 0
  1.000000   0.906250 0
  1.000000   0.937500 0
  1.000000   0.968750 0
  0.906250   0.906250 0
  0.906250   0.875000 0
  0.906250   0.812500 0
  0.906250   0.843750 0
  0.937500   0.906250 0
  0.937500   0.937500 0
  0.937500   0.843750 0
  0.937500   0.875000 0
  0.968750   0.875000 0
  0.968750   0.656250 0
  0.968750   0.687500 0
  1.000000   0.656250 0
  1.000000   0.625000 0
  1.000000   0.687500 0
  0.906250   0.656250 0
  0.906250   0.687500 0
  0.906250   0.625000 0
  0.906250   0.531250 0
  0.906250   0.562500 0
  0.906250   0.593750 0
  0.937500   0.656250 0
  0.937500   0.687500 0
  0.937500   0.531250 0
  0.937500   0.562500 0
  0.937500   0.593750 0
  0.937500   0.625000 0
  0.968750   0.625000 0
  0.968750   0.593750 0
  1.000000   0.593750 0
  0.968750   0.562500 0
  1.000000   0.562500 0
  1.000000   0.531250 0
  0.968750   0.531250 0
  0.781250   1.000000 0
  0.812500   0.781250 0
  0.812500   0.812500 0
  0.875000   0.843750 0
  0.875000   0.812500 0
  0.875000   0.875000 0
  0.781250   0.781250 0
  0.843750   0.843750 0
  0.843750   0.812500 0
  0.875000   0.781250 0
  0.843750   0.781250 0
  0.781250   0.750000 0
  0.781250   0.718750 0
  0.781250   0.687500 0
  0.812500   0.750000 0
  0.812500   0.718750 0
  0.812500   0.531250 0
  0.812500   0.687500 0
  0.812500   0.656250 0
  0.812500   0.562500 0
  0.812500   0.593750 0
  0.812500   0.625000 0
  0.875000   0.687500 0
  0.875000   0.656250 0
  0.875000   0.593750 0
  0.875000   0.562500 0
  0.875000   0.625000 0
  0.781250   0.531250 0
  0.781250   0.562500 0
  0.781250   0.625000 0
  0.781250   0.593750 0
  0.781250   0.656250 0
  0.843750   0.656250 0
  0.843750   0.593750 0
  0.843750   0.562500 0
  0.843750   0.625000 0
  0.843750   0.687500 0
  0.843750   0.750000 0
  0.875000   0.531250 0
  0.843750   0.531250 0
  0.656250   0.906250 0
  0.656250   0.937500 0
  0.656250   1.000000 0
  0.656250   0.968750 0
  0.687500   1.000000 0
  0.687500   0.968750 0
  0.687500   0.937500 0
  0.718750   0.937500 0
  0.718750   0.968750 0
  0.718750   1.000000 0
  0.656250   0.781250 0
  0.656250   0.812500 0
  0.656250   0.843750 0
  0.656250   0.875000 0
  0.750000   0.968750 0
  0.750000   1.000000 0
  0.750000   0.656250 0
  0.750000   0.625000 0
  0.687500   0.656250 0
  0.687500   0.687500 0
  0.687500   0.625000 0
  0.718750   0.656250 0
  0.718750   0.687500 0
  0.718750   0.718750 0
  0.656250   0.531250 0
  0.656250   0.562500 0
  0.656250   0.656250 0
  0.656250   0.687500 0
  0.656250   0.750000 0
  0.656250   0.718750 0
  0.656250   0.625000 0
  0.656250   0.593750 0
  0.750000   0.687500 0
  0.750000   0.718750 0
  0.750000   0.750000 0
  0.687500   0.531250 0
  0.687500   0.562500 0
  0.687500   0.593750 0
  0.718750   0.625000 0
  0.750000   0.531250 0
  0.718750   0.531250 0
  0.750000   0.562500 0
  0.718750   0.562500 0
  0.718750   0.593750 0
  0.750000   0.593750 0
  0.562500   1.000000 0
  0.562500   0.968750 0
  0.562500   0.937500 0
  0.562500   0.906250 0
  0.562500   0.812500 0
  0.562500   0.843750 0
  0.562500   0.875000 0
  0.625000   0.937500 0
  0.625000   0.906250 0
  0.562500   0.781250 0
  0.625000   0.875000 0
  0.531250   1.000000 0
  0.531250   0.968750 0
  0.531250   0.937500 0
  0.531250   0.812500 0
  0.531250   0.875000 0
  0.531250   0.843750 0
  0.531250   0.906250 0
  0.593750   0.906250 0
  0.593750   0.843750 0
  0.593750   0.875000 0
  0.593750   0.812500 0
  0.625000   0.843750 0
  0.625000   0.812500 0
  0.593750   0.937500 0
  0.625000   1.000000 0
  0.593750   1.000000 0
  0.593750   0.968750 0
  0.625000   0.968750 0
  0.625000   0.781250 0
  0.593750   0.781250 0
  0.562500   0.531250 0
  0.562500   0.750000 0
  0.562500   0.718750 0
  0.562500   0.687500 0
  0.562500   0.656250 0
  0.562500   0.562500 0
  0.562500   0.593750 0
  0.562500   0.625000 0
  0.625000   0.687500 0
  0.625000   0.656250 0
  0.625000   0.593750 0
  0.625000   0.562500 0
  0.625000   0.625000 0
  0.531250   0.531250 0
  0.531250   0.750000 0
  0.531250   0.718750 0
  0.531250   0.687500 0
  0.531250   0.562500 0
  0.531250   0.625000 0
  0.531250   0.593750 0
  0.531250   0.656250 0
  0.593750   0.656250 0
  0.593750   0.593750 0
  0.593750   0.562500 0
  0.593750   0.625000 0
  0.593750   0.687500 0
  0.625000   0.750000 0
  0.593750   0.750000 0
  0.593750   0.718750 0
  0.625000   0.718750 0
  0.625000   0.531250 0
  0.593750   0.531250 0
  0.968750   0.406250 0
  0.968750   0.437500 0
  0.968750   0.468750 0
  0.968750   0.500000 0
  1.000000   0.406250 0
  1.000000   0.375000 0
  1.000000   0.437500 0
  1.000000   0.468750 0
  1.000000   0.500000 0
  0.906250   0.500000 0
  0.906250   0.406250 0
  0.906250   0.437500 0
  0.906250   0.281250 0
  0.906250   0.312500 0
  0.906250   0.343750 0
  0.906250   0.375000 0
  0.937500   0.406250 0
  0.937500   0.500000 0
  0.937500   0.468750 0
  0.937500   0.437500 0
  0.937500   0.281250 0
  0.937500   0.312500 0
  0.937500   0.343750 0
  0.937500   0.375000 0
  0.968750   0.375000 0
  1.000000   0.281250 0
  0.968750   0.281250 0
  1.000000   0.312500 0
  0.968750   0.312500 0
  0.968750   0.343750 0
  1.000000   0.343750 0
  0.968750   0.125000 0
  0.968750   0.156250 0
  0.968750   0.187500 0
  1.000000   0.000000 0
  1.000000   0.156250 0
  1.000000   0.125000 0
  1.000000   0.187500 0
  1.000000   0.218750 0
  0.531250   0.781250 0
  1.000000   0.250000 0
  0.906250   0.250000 0
  0.906250   0.218750 0
  0.937500   0.250000 0
  0.937500   0.218750 0
  0.968750   0.250000 0
  0.906250   0.031250 0
  0.906250   0.000000 0
  0.906250   0.062500 0
  0.906250   0.093750 0
  0.906250   0.125000 0
  0.937500   0.156250 0
  0.937500   0.031250 0
  0.937500   0.000000 0
  0.937500   0.062500 0
  0.937500   0.093750 0
  0.937500   0.125000 0
  1.000000   0.031250 0
  0.968750   0.031250 0
  0.968750   0.000000 0
  1.000000   0.062500 0
  0.968750   0.062500 0
  0.968750   0.093750 0
  1.000000   0.093750 0
  0.781250   0.312500 0
  0.781250   0.343750 0
  0.812500   0.500000 0
  0.812500   0.468750 0
  0.812500   0.437500 0
  0.812500   0.281250 0
  0.812500   0.312500 0
  0.812500   0.343750 0
  0.812500   0.375000 0
  0.875000   0.281250 0
  0.875000   0.406250 0
  0.875000   0.343750 0
  0.875000   0.312500 0
  0.875000   0.375000 0
  0.843750   0.281250 0
  0.843750   0.312500 0
  0.843750   0.375000 0
  0.843750   0.343750 0
  0.781250   0.500000 0
  0.781250   0.468750 0
  0.781250   0.437500 0
  0.781250   0.406250 0
  0.875000   0.500000 0
  0.843750   0.500000 0
  0.843750   0.468750 0
  0.875000   0.468750 0
  0.781250   0.281250 0
  0.843750   0.218750 0
  0.843750   0.250000 0
  0.843750   0.187500 0
  0.843750   0.156250 0
  0.875000   0.218750 0
  0.875000   0.250000 0
  0.875000   0.187500 0
  0.812500   0.062500 0
  0.812500   0.250000 0
  0.812500   0.218750 0
  0.812500   0.187500 0
  0.812500   0.156250 0
  0.812500   0.125000 0
  0.843750   0.093750 0
  0.843750   0.062500 0
  0.875000   0.125000 0
  0.875000   0.093750 0
  0.875000   0.062500 0
  0.781250   0.250000 0
  0.781250   0.218750 0
  0.781250   0.187500 0
  0.093750   0.937500 0
  0.125000   1.000000 0
  0.937500   0.718750 0
  0.250000   0.000000 0
  0.093750   0.968750 0
  0.125000   0.968750 0
  0.000000   0.718750 0
  0.000000   0.750000 0
  0.125000   0.531250 0
  0.125000   0.562500 0
  0.093750   0.531250 0
  0.031250   0.750000 0
  0.125000   0.468750 0
  0.156250   0.468750 0
  0.500000   0.375000 0
  0.156250   0.500000 0
  0.406250   0.406250 0
  0.406250   0.437500 0
  0.406250   0.500000 0
  0.406250   0.468750 0
  0.406250   0.375000 0
  0.750000   0.312500 0
  0.437500   0.406250 0
  0.437500   0.500000 0
  0.437500   0.468750 0
  0.437500   0.437500 0
  0.468750   0.437500 0
  0.468750   0.468750 0
  0.406250   0.281250 0
  0.406250   0.312500 0
  0.062500   0.375000 0
  0.406250   0.343750 0
  0.062500   0.406250 0
  0.500000   0.468750 0
  0.500000   0.500000 0
  0.437500   0.281250 0
  0.437500   0.312500 0
  0.437500   0.343750 0
  0.093750   0.406250 0
  0.437500   0.375000 0
  0.093750   0.437500 0
  0.468750   0.375000 0
  0.125000   0.437500 0
  0.500000   0.281250 0
  0.468750   0.281250 0
  0.500000   0.312500 0
  0.468750   0.312500 0
  0.468750   0.343750 0
  0.500000   0.343750 0
  0.843750   0.906250 0
  0.156250   0.187500 0
  0.468750   0.187500 0
  0.468750   0.218750 0
  0.468750   0.250000 0
  0.406250   0.031250 0
  0.750000   0.812500 0
  0.062500   0.093750 0
  0.406250   0.000000 0
  0.750000   0.781250 0
  0.062500   0.062500 0
  0.500000   0.187500 0
  0.500000   0.218750 0
  0.500000   0.250000 0
  0.437500   0.031250 0
  0.781250   0.812500 0
  0.093750   0.093750 0
  0.437500   0.000000 0
  0.437500   0.062500 0
  0.781250   0.843750 0
  0.093750   0.125000 0
  0.406250   0.187500 0
  0.406250   0.250000 0
  0.406250   0.218750 0
  0.437500   0.250000 0
  0.437500   0.218750 0
  0.437500   0.187500 0
  0.500000   0.000000 0
  0.500000   0.031250 0
  0.468750   0.031250 0
  0.468750   0.000000 0
  0.500000   0.062500 0
  0.468750   0.062500 0
  0.812500   0.843750 0
  0.125000   0.125000 0
  0.812500   0.875000 0
  0.125000   0.156250 0
  0.500000   0.093750 0
  0.843750   0.875000 0
  0.156250   0.156250 0
  1.000000   1.000000 0
  0.312500   0.281250 0
  0.656250   0.218750 0
  0.437500   0.156250 0
  0.312500   0.500000 0
  0.437500   0.125000 0
  0.312500   0.468750 0
  0.437500   0.093750 0
  0.781250   0.031250 0
  0.312500   0.437500 0
  0.312500   0.406250 0
  0.312500   0.312500 0
  0.312500   0.343750 0
  0.312500   0.375000 0
  0.375000   0.437500 0
  0.375000   0.406250 0
  0.375000   0.343750 0
  0.718750   0.281250 0
  0.375000   0.375000 0
  0.968750   1.000000 0
  0.281250   0.281250 0
  0.406250   0.156250 0
  0.281250   0.500000 0
  0.406250   0.125000 0
  0.281250   0.468750 0
[...]
CELL_DATA 1024
SCALARS scalar_value float 1
LOOKUP_TABLE default
0.0889416
0.0903241
0.0139588
0.0529194
-0.0107656
0.0194799
0.104993
0.0614414
0.0592191
0.042435
0.0124898
0.014446
0.00479251
0.0520225
0.0532348
-0.0087625
0.0503606
0.0725854
0.029966
0.0754124
0.0616436
0.060727
0.0706527
0.0195289
-0.0210402
0.0162287
0.0314467
0.0327653
0.0270077
-0.01488
-0.0691741
0.0695469
-0.0125884
-0.00429403
-0.00258257
-0.00149827
-0.00764143
-0.00396482
-0.00708665
-0.00257063
-0.00163241
-0.00183742
-0.014573
-0.00788747
-0.0088242
-0.0299542
-0.0200812
-0.032817
0.00742694
-0.0201917
-0.0539452
-0.0577662
-0.0138647
-0.000520851
-0.00810358
-0.00185171
-0.00762954
-0.00473548
-0.0165397
-0.000919502
-0.0149033
-0.00952473
-0.00379166
-0.000174533
0.254182
0.137372
-0.00224936
0.0214458
-0.151838
0.0209447
0.159539
0.431279
0.0114248
-0.00457049
0.0585467
0.0695671
-0.0287154
-0.0684521
-0.0100047
0.0517345
0.106715
-0.0557742
0.014072
0.0162609
0.0216601
0.0208674
0.0826566
-0.0244073
-0.0588268
-0.0309675
0.0707529
-0.0147472
-0.0676848
0.0772174
0.0993356
-0.0180928
0.0185127
0.015141
-0.0265173
-0.00660536
-0.0182334
0.0306694
0.0197016
0.0135451
-0.0110665
-0.00183276
0.0307208
-0.0255479
0.0274574
0.00864514
0.162468
0.00196499
0.00192335
-0.0385034
0.036023
0.000326801
0.0207104
-0.0437739
-0.024408
-0.0235423
0.0165209
-0.00933135
-0.0203127
-0.0015086
-0.00182179
-0.00315335
0.0604523
-0.0226317
0.106204
1.87481
2.52228
0.0769099
-0.00755776
0.0941422
0.0828527
-0.0887838
0.124237
0.624075
1.12526
-0.0984594
0.000284202
0.0225345
-0.166665
0.091094
0.831687
-0.043135
0.0115803
0.173643
0.524139
0.264907
0.0658093
0.137358
-0.0719248
-0.011514
0.604807
0.742507
0.0686607
-0.0172499
0.0192243
-0.0346059
0.00599997
0.0329901
-0.0265992
4.61457
4.5982
4.68346
4.47681
2.77794
0.658855
-0.0144667
4.71558
4.35381
1.59141
4.09063
-0.12536
-0.0457027
0.0188695
0.0018638
-0.0260518
-0.00832909
-0.0128835
0.112636
0.336737
0.0127947
-0.00979829
0.00943255
-0.012236
-0.022636
-0.0224916
0.540414
2.41446
3.97267
4.28852
4.30352
4.34461
3.78343
3.50991
3.85561
3.73668
4.26192
4.38781
4.58849
4.64036
4.02429
2.99528
2.19843
2.96513
1.22704
0.266823
3.10627
3.57446
1.23874
0.17069
2.85061
-0.149208
0.0156682
0.564021
0.0147878
2.32883
1.6397
2.61214
3.3235
1.31309
1.62994
0.56268
0.333945
2.40863
1.06554
0.174443
-0.141799
-0.166822
-0.0993937
-0.0372231
-0.1653
-0.195659
-0.00645743
0.100617
0.886873
4.14131
2.37402
1.0648
0.214939
1.30731
3.9627
3.92244
3.24993
3.31985
4.34793
4.53802
4.45735
4.58419
4.26657
2.24161
1.98287
3.35136
3.25844
-0.000132637
-0.000672358
-1.34893e-06
-1.34606e-06
2.22344e-06
-1.57302e-06
-8.71409e-07
-1.9848e-05
-3.33034e-08
1.88749e-08
3.65432e-08
8.02351e-08
-0.00035624
-2.80344e-05
-8.0888e-09
-6.22219e-08
8.80121e-07
9.08012e-07
-5.0289e-06
-8.38358e-05
-4.33769e-08
4.37973e-07
1.75192e-07
2.53608e-07
8.14532e-09
-6.01737e-09
-1.77079e-08
-2.82567e-08
-2.51917e-09
-3.52078e-09
3.45788e-09
-2.14096e-09
2.40807e-10
-9.53915e-10
0
0
-2.05206e-07
-2.50082e-07
5.30014e-08
-2.5225e-08
-8.32479e-08
6.44763e-08
-2.38277e-07
3.29083e-07
2.29457e-08
-1.1392e-07
-9.86679e-09
-2.9703e-08
2.05458e-08
3.28891e-08
-1.50424e-08
9.67102e-09
-6.54616e-09
-4.02395e-09
1.99745e-09
1.44984e-08
-4.93605e-09
1.76634e-09
-1.1153e-10
1.15978e-09
-2.10458e-09
-1.19098e-10
3.24822e-09
4.41941e-10
-0.00171912
0.000928953
0.0279548
-0.00413239
-0.000261668
-0.000570939
-0.000240444
0.000179101
0.0928487
0.0048918
0.790107
-0.274543
-0.00439655
0.0104432
-0.00362983
-0.000113163
1.06966e-07
-0.00118527
0.013926
-0.000245857
7.70514e-05
-1.29991e-05
-3.52915e-06
-3.35727e-05
3.85629e-05
-3.41713e-05
2.6389e-05
-0.000546617
0.000187139
-4.33706e-06
2.49842e-06
-9.3925e-06
6.2188e-05
5.14187e-05
1.0962e-05
-1.28893e-05
-4.05693e-06
-2.30392e-06
-4.30089e-06
3.7915e-06
8.18318e-07
1.69108e-06
-7.93867e-05
-3.73796e-05
-7.01116e-06
-1.177e-05
-1.79665e-06
-5.13998e-06
-9.87831e-06
-4.34068e-06
2.81276e-06
-5.69636e-07
-7.85146e-07
7.51973e-07
2.80637e-07
-1.49314e-06
-1.7803e-06
1.48296e-06
-4.80639e-07
6.54833e-07
-6.64833e-08
4.50418e-07
-9.45262e-08
-4.63532e-07
1.17519
3.03947
-0.0458989
0.001776
2.50289
4.55689
3.2
0.089527
0.00177816
4.48515
2.86516
4.74932
4.06105
4.23331
4.40501
4.51682
4.61073
4.65924
4.61284
1.98453
0.0209567
0.0853817
0.0631791
0.0145164
-0.00114259
0.00136398
0.675649
0.638302
-0.00278839
0.472338
0.107047
-0.00347333
-0.00134245
-0.000289759
-0.000320528
-0.000109591
-0.000609472
-0.000180408
0.000169715
-0.000267219
-0.000887722
-0.000428638
-9.07351e-05
-0.000858554
-0.000349732
0.00479175
-0.00151911
-0.00121677
-0.00339074
-0.00191341
0.00284096
0.010209
-0.00141777
-0.00142212
-0.000424953
-7.81082e-05
-0.000152056
-0.000221512
-0.00012911
7.7532e-06
-2.56702e-06
-0.000380437
-1.81692e-05
-7.69022e-06
4.21874
4.63482
2.11154
3.36953
4.67456
4.55167
4.41527
4.61842
3.72061
2.69738
4.2126
4.70062
0.983742
4.0768
0.943446
-0.00314726
1.51785
-0.0161335
4.42594
4.66552
3.74875
2.87776
4.35851
4.61456
0.0138223
4.64967
4.62616
4.63849
2.5042
4.21458
3.72631
-0.0176041
0.00626672
0.00173488
-0.0143051
0.00486995
0.00115264
0.000714357
6.88525e-06
0.00019572
-0.000419785
-0.000599079
-0.00372621
-0.00180958
0.000325582
-0.00384103
-0.000549667
0.00104715
-0.000164763
0.00140492
0.000800833
0.0019232
0.000296226
0.000121198
-0.000649852
-0.000238806
0.000858165
0.00177476
-0.00377668
-0.0158328
-0.00442742
0.00315791
0.000355847
6.70633e-05
4.67378
4.20025
0.0875066
0.803169
0.890571
0.247498
0.510071
0.715464
0.76906
4.12734
4.37995
4.5203
4.60426
4.38645
4.70623
4.65647
-0.425432
-0.0982237
-0.509591
0.0213618
1.84018
0.982304
2.77514
3.58298
0.460532
0.266431
3.87698
-0.436429
-0.261179
-0.0764059
0.0378022
0.0355664
4.67182
1.36557
2.52815
-0.0577734
-0.0284846
2.02786
2.88113
1.11066
0.406978
0.0554817
-0.0424257
3.6722
3.67113
4.59549
4.53812
4.55903
4.64377
4.28209
3.93408
4.46103
4.84132
4.97671
4.58938
4.36237
4.91429
4.99203
-0.104297
-0.0119997
0.283822
0.328751
0.361724
0.500223
-0.00104391
0.00152539
0.00119071
0.00219234
0.00183388
0.00159543
0.0042809
0.00823099
0.0131842
-0.00433864
-0.00435606
-0.00274147
0.00605609
0.000820638
0.00542733
0.0013602
0.0131326
0.0153292
0.00884159
0.00312272
0.0132626
0.0213235
0.000662196
0.00528226
0.0308651
0.0187176
0.0404448
0.048463
-0.0227346
-0.0210616
0.00658751
-0.00730282
0.0167351
0.019659
0.000184551
-5.07697e-05
-0.0014873
0.0226112
0.02323
0.0169806
0.00688732
0.00182093
0.00528011
-0.00382401
-0.00180871
-0.00504608
0.00334066
0.00440807
0.0201137
0.0165029
0.0190683
0.023004
-0.0363862
-0.0575939
0.0179735
-0.00360111
-0.199496
-0.0134795
-0.0337189
-0.00918221
-0.0144605
-0.0815263
-0.225132
-0.15958
-0.00360288
-0.00588679
0.00451747
0.00589539
0.000318869
0.00226028
-0.00863731
-0.0137162
0.000741715
0.00280811
-0.00145478
-0.00424746
-0.0332526
-0.0229138
-0.00111897
-0.00752191
-0.0156094
0.0283929
-0.0015703
-0.00249679
-0.00788054
0.00393105
-0.00229776
0.00555176
0.000560877
0.00377589
0.000138423
-0.00158549
0.00379623
0.00413477
0.000684135
-0.000250993
0.00192317
0.00282645
0.000388746
0.000696671
0.00132638
0.00143931
-0.001532
0.000722146
0.000485311
0.000139249
-0.00627612
-0.00512534
0.00516482
0.00338224
0.0013671
0.001042
0.00176948
0.00216116
-0.00372749
-0.00117185
0.000204502
3.7473e-05
-0.000299037
-0.00271112
0.00166264
0.000647588
0.00163323
0.00230947
0.00148467
0.00154831
-0.00444127
-0.000673016
-0.0141601
-0.011092
0.0801312
-0.013952
-0.00317629
-0.000838438
-0.000460906
0.106982
0.278392
0.178294
0.0865295
-0.0114088
0.258569
-0.0116665
-0.00184513
0.000126293
0.00137197
0.000777606
0.000313676
-0.00818656
-0.0342654
-0.00608698
-0.0024341
0.000714856
0.0012057
-0.00482559
-0.0100083
-0.0163694
-0.0135351
-0.0275947
0.0734366
7.74182e-05
0.000229903
0.000117855
0.000285337
0.000314666
4.53438e-05
1.17565e-05
2.39435e-06
3.13765e-07
0.000271958
0.000147258
0.000277697
-0.000156293
2.94033e-05
6.94983e-05
8.24829e-06
2.81553e-06
8.70377e-06
0.00061112
0.000979229
0.000367336
0.000190696
8.30783e-06
1.59416e-06
0.000112959
3.63019e-05
0.000898547
0.000567353
0.00164768
0.00188092
5.16248e-05
0.00031998
0.000115613
3.574
3.7536
-0.00692603
-0.000995561
-0.00667552
0.0264316
0.126377
2.08291
4.30466
3.75724
0.0099075
-0.00502893
-0.0451555
-0.00912018
0.111727
1.94144
4.14769
3.49658
4.75845
4.60323
4.67492
3.02628
0.0103049
0.0332854
4.5704
4.6111
3.79042
4.50274
2.16662
0.389073
0.0120103
0.00112609
-0.000331952
0.00575154
9.43464e-05
-1.19451e-05
-0.000120799
0.00025529
0.00834534
8.69098e-05
-0.00012438
0.000102832
0.000190345
0.000178471
0.000686229
0.00228397
0.000164764
0.000493986
0.000511663
0.0052926
-0.000422503
-0.000993371
0.000283924
-0.00262402
-0.000297944
-9.52207e-06
-2.68429e-05
-0.00225482
-8.19547e-05
0.00304412
3.70192e-05
-4.17089e-05
2.51705e-05
-0.000113268
0.000504814
0.000139838
0.0068623
0.00254001
0.000103051
-2.77197e-05
0.000627276
0.00259077
-4.10711e-05
0.000224739
5.97583e-05
-4.61953e-05
-4.71335e-05
0.0520146
-0.0701358
-9.16187e-06
3.44621e-05
1.14295e-05
0.00331399
-0.0345799
0.00675171
0.0420804
-0.00306103
-0.000330961
-0.00238847
-0.00132061
-0.00137867
0.00231735
-5.24828e-05
-0.000414394
-0.000706344
0.00015204
1.32762e-05
5.77582e-06
7.63102e-05
-6.42564e-05
-3.91884e-06
-1.21236e-06
5.91618e-07
9.06317e-06
-3.14488e-05
5.06163e-07
-1.10564e-06
9.6596e-07
-5.95604e-07
5.50323e-08
-9.15653e-05
8.7561e-05
-0.000394903
-0.00133813
5.47105e-05
-8.23027e-05
-1.60278e-05
2.43039e-06
-1.52545e-07
7.73078e-09
1.01041e-05
-0.000196942
-1.73092e-05
-4.2062e-05
2.65512e-05
5.04346e-06
-5.16629e-07
-1.49676e-05
-2.00836e-06
7.28424e-07
-1.9604e-05
1.08396e-05
-2.68614e-07
3.20899e-06
-1.2228e-07
1.29316e-07
-2.19083e-07
8.95829e-08
3.33309e-07
-4.19045e-09
3.07281e-05
3.28622e-06
4.43766e-07
-9.86116e-07
-4.46149e-07
-2.87042e-07
5.01669e-07
-3.67676e-06
1.02919e-06
-1.79689e-06
2.88032e-06
0.0001545
2.01317e-05
2.72254e-07
1.48005e-05
1.79244e-05
1.0959e-05
-1.50905e-05
0.00063692
9.75165e-05
5.92174e-09
1.02389e-09
1.91275e-08
-2.17754e-09
-1.58756e-09
4.80276e-09
-4.76891e-09
-4.05203e-09
1.00604e-08
-2.96224e-07
1.0426e-07
5.51054e-09
1.90744e-09
1.45218e-08
-1.2083e-08
4.13298e-09
-2.22581e-08
-1.84651e-06
7.20782e-06
2.39056e-07
-4.30776e-07
8.70764e-07
-8.15021e-08
-2.27177e-09
-1.05523e-07
1.4075e-06
-1.41926e-08
1.43397e-07
3.92391e-08
-1.03307e-08
4.19009e-09
4.54188e-10
-4.32094e-08
3.12863e-07
1.28691e-06
-1.42818e-08
8.80546e-09
9.3802e-09
3.09593e-09
-2.27372e-09
-2.02364e-09
-1.22964e-10
6.52392e-08
1.01522e-08
1.45087e-09
6.77814e-10
2.08543e-09
1.27298e-09
-1.14214e-08
1.08689e-07
6.09055e-08
3.51966e-08
-2.33368e-09
-3.30446e-09
6.84313e-09
1.17993e-09
7.26603e-08
6.11165e-08
5.84979e-08
6.22415e-07
-4.78388e-09
-1.13965e-08
2.66205e-09
-1.63021e-08
0
4.54012e-10
0
0
1.01397e-10
-1.19433e-10
1.9174e-10
0
0
0
0
0
4.31522e-09
0
0
0
0
-2.65742e-10
2.24796e-10
1.39831e-09
8.91098e-10
9.34039e-10
-4.36302e-10
-1.66379e-09
0
-1.44574e-10
-7.8676e-10
2.88809e-10
0
0
0
0
