# vtk DataFile Version 2.0
Unstructured Grid by M++
ASCII
DATASET UNSTRUCTURED_GRID
POINTS 1089 float
  0.968750   0.906250 0
  0.968750   0.937500 0
  1.000000   0.906250 0
  1.000000   0.937500 0
  1.000000   0.968750 0
  0.906250   0.906250 0
  0.906250   0.875000 0
  0.906250   0.812500 0
  0.906250   0.843750 0
  0.937500   0.906250 0
  0.937500   0.937500 0
  0.937500   0.843750 0
  0.937500   0.875000 0
  0.968750   0.875000 0
  0.968750   0.656250 0
  0.968750   0.687500 0
  1.000000   0.656250 0
  1.000000   0.625000 0
  1.000000   0.687500 0
  0.906250   0.656250 0
  0.906250   0.687500 0
  0.906250   0.625000 0
  0.906250   0.531250 0
  0.906250   0.562500 0
  0.906250   0.593750 0
  0.937500   0.656250 0
  0.937500   0.687500 0
  0.937500   0.531250 0
  0.937500   0.562500 0
  0.937500   0.593750 0
  0.937500   0.625000 0
  0.968750   0.625000 0
  0.968750   0.593750 0
  1.000000   0.593750 0
  0.968750   0.562500 0
  1.000000   0.562500 0
  1.000000   0.531250 0
  0.968750   0.531250 0
  0.781250   1.000000 0
  0.812500   0.781250 0
  0.812500   0.812500 0
  0.875000   0.843750 0
  0.875000   0.812500 0
  0.875000   0.875000 0
  0.781250   0.781250 0
  0.843750   0.843750 0
  0.843750   0.812500 0
  0.875000   0.781250 0
  0.843750   0.781250 0
  0.781250   0.750000 0
  0.781250   0.718750 0
  0.781250   0.687500 0
  0.812500   0.750000 0
  0.812500   0.718750 0
  0.812500   0.531250 0
  0.812500   0.687500 0
  0.812500   0.656250 0
  0.812500   0.562500 0
  0.812500   0.593750 0
  0.812500   0.625000 0
  0.875000   0.687500 0
  0.875000   0.656250 0
  0.875000   0.593750 0
  0.875000   0.562500 0
  0.875000   0.625000 0
  0.781250   0.531250 0
  0.781250   0.562500 0
  0.781250   0.625000 0
  0.781250   0.593750 0
  0.781250   0.656250 0
  0.843750   0.656250 0
  0.843750   0.593750 0
  0.843750   0.562500 0
  0.843750   0.625000 0
  0.843750   0.687500 0
  0.843750   0.750000 0
  0.875000   0.531250 0
  0.843750   0.531250 0
  0.656250   0.906250 0
  0.656250   0.937500 0
  0.656250   1.000000 0
  0.656250   0.968750 0
  0.687500   1.000000 0
  0.687500   0.968750 0
  0.687500   0.937500 0
  0.718750   0.937500 0
  0.718750   0.968750 0
  0.718750   1.000000 0
  0.656250   0.781250 0
  0.656250   0.812500 0
  0.656250   0.843750 0
  0.656250   0.875000 0
  0.750000   0.968750 0
  0.750000   1.000000 0
  0.750000   0.656250 0
  0.750000   0.625000 0
  0.687500   0.656250 0
  0.687500   0.687500 0
  0.687500   0.625000 0
  0.718750   0.656250 0
  0.718750   0.687500 0
  0.718750   0.718750 0
  0.656250   0.531250 0
  0.656250   0.562500 0
  0.656250   0.656250 0
  0.656250   0.687500 0
  0.656250   0.750000 0
  0.656250   0.718750 0
  0.656250   0.625000 0
  0.656250   0.593750 0
  0.750000   0.687500 0
  0.750000   0.718750 0
  0.750000   0.750000 0
  0.687500   0.531250 0
  0.687500   0.562500 0
  0.687500   0.593750 0
  0.718750   0.625000 0
  0.750000   0.531250 0
  0.718750   0.531250 0
  0.750000   0.562500 0
  0.718750   0.562500 0
  0.718750   0.593750 0
  0.750000   0.593750 0
  0.562500   1.000000 0
  0.562500   0.968750 0
  0.562500   0.937500 0
  0.562500   0.906250 0
  0.562500   0.812500 0
  0.562500   0.843750 0
  0.562500   0.875000 0
  0.625000   0.937500 0
  0.625000   0.906250 0
  0.562500   0.781250 0
  0.625000   0.875000 0
  0.531250   1.000000 0
  0.531250   0.968750 0
  0.531250   0.937500 0
  0.531250   0.812500 0
  0.531250   0.875000 0
  0.531250   0.843750 0
  0.531250   0.906250 0
  0.593750   0.906250 0
  0.593750   0.843750 0
  0.593750   0.875000 0
  0.593750   0.812500 0
  0.625000   0.843750 0
  0.625000   0.812500 0
  0.593750   0.937500 0
  0.625000   1.000000 0
  0.593750   1.000000 0
  0.593750   0.968750 0
  0.625000   0.968750 0
  0.625000   0.781250 0
  0.593750   0.781250 0
  0.562500   0.531250 0
  0.562500   0.750000 0
  0.562500   0.718750 0
  0.562500   0.687500 0
  0.562500   0.656250 0
  0.562500   0.562500 0
  0.562500   0.593750 0
  0.562500   0.625000 0
  0.625000   0.687500 0
  0.625000   0.656250 0
  0.625000   0.593750 0
  0.625000   0.562500 0
  0.625000   0.625000 0
  0.531250   0.531250 0
  0.531250   0.750000 0
  0.531250   0.718750 0
  0.531250   0.687500 0
  0.531250   0.562500 0
  0.531250   0.625000 0
  0.531250   0.593750 0
  0.531250   0.656250 0
  0.593750   0.656250 0
  0.593750   0.593750 0
  0.593750   0.562500 0
  0.593750   0.625000 0
  0.593750   0.687500 0
  0.625000   0.750000 0
  0.593750   0.750000 0
  0.593750   0.718750 0
  0.625000   0.718750 0
  0.625000   0.531250 0
  0.593750   0.531250 0
  0.968750   0.406250 0
  0.968750   0.437500 0
  0.968750   0.468750 0
  0.968750   0.500000 0
  1.000000   0.406250 0
  1.000000   0.375000 0
  1.000000   0.437500 0
  1.000000   0.468750 0
  1.000000   0.500000 0
  0.906250   0.500000 0
  0.906250   0.406250 0
  0.906250   0.437500 0
  0.906250   0.281250 0
  0.906250   0.312500 0
  0.906250   0.343750 0
  0.906250   0.375000 0
  0.937500   0.406250 0
  0.937500   0.500000 0
  0.937500   0.468750 0
  0.937500   0.437500 0
  0.937500   0.281250 0
  0.937500   0.312500 0
  0.937500   0.343750 0
  0.937500   0.375000 0
  0.968750   0.375000 0
  1.000000   0.281250 0
  0.968750   0.281250 0
  1.000000   0.312500 0
  0.968750   0.312500 0
  0.968750   0.343750 0
  1.000000   0.343750 0
  0.968750   0.125000 0
  0.968750   0.156250 0
  0.968750   0.187500 0
  1.000000   0.000000 0
  1.000000   0.156250 0
  1.000000   0.125000 0
  1.000000   0.187500 0
  1.000000   0.218750 0
  0.531250   0.781250 0
  1.000000   0.250000 0
  0.906250   0.250000 0
  0.906250   0.218750 0
  0.937500   0.250000 0
  0.937500   0.218750 0
  0.968750   0.250000 0
  0.906250   0.031250 0
  0.906250   0.000000 0
  0.906250   0.062500 0
  0.906250   0.093750 0
  0.906250   0.125000 0
  0.937500   0.156250 0
  0.937500   0.031250 0
  0.937500   0.000000 0
  0.937500   0.062500 0
  0.937500   0.093750 0
  0.937500   0.125000 0
  1.000000   0.031250 0
  0.968750   0.031250 0
  0.968750   0.000000 0
  1.000000   0.062500 0
  0.968750   0.062500 0
  0.968750   0.093750 0
  1.000000   0.093750 0
  0.781250   0.312500 0
  0.781250   0.343750 0
  0.812500   0.500000 0
  0.812500   0.468750 0
  0.812500   0.437500 0
  0.812500   0.281250 0
  0.812500   0.312500 0
  0.812500   0.343750 0
  0.812500   0.375000 0
  0.875000   0.281250 0
  0.875000   0.406250 0
  0.875000   0.343750 0
  0.875000   0.312500 0
  0.875000   0.375000 0
  0.843750   0.281250 0
  0.843750   0.312500 0
  0.843750   0.375000 0
  0.843750   0.343750 0
  0.781250   0.500000 0
  0.781250   0.468750 0
  0.781250   0.437500 0
  0.781250   0.406250 0
  0.875000   0.500000 0
  0.843750   0.500000 0
  0.843750   0.468750 0
  0.875000   0.468750 0
  0.781250   0.281250 0
  0.843750   0.218750 0
  0.843750   0.250000 0
  0.843750   0.187500 0
  0.843750   0.156250 0
  0.875000   0.218750 0
  0.875000   0.250000 0
  0.875000   0.187500 0
  0.812500   0.062500 0
  0.812500   0.250000 0
  0.812500   0.218750 0
  0.812500   0.187500 0
  0.812500   0.156250 0
  0.812500   0.125000 0
  0.843750   0.093750 0
  0.843750   0.062500 0
  0.875000   0.125000 0
  0.875000   0.093750 0
  0.875000   0.062500 0
  0.781250   0.250000 0
  0.781250   0.218750 0
  0.781250   0.187500 0
  0.093750   0.937500 0
  0.125000   1.000000 0
  0.937500   0.718750 0
  0.250000   0.000000 0
  0.093750   0.968750 0
  0.125000   0.968750 0
  0.000000   0.718750 0
  0.000000   0.750000 0
  0.125000   0.531250 0
  0.125000   0.562500 0
  0.093750   0.531250 0
  0.031250   0.750000 0
  0.125000   0.468750 0
  0.156250   0.468750 0
  0.500000   0.375000 0
  0.156250   0.500000 0
  0.406250   0.406250 0
  0.406250   0.437500 0
  0.406250   0.500000 0
  0.406250   0.468750 0
  0.406250   0.375000 0
  0.750000   0.312500 0
  0.437500   0.406250 0
  0.437500   0.500000 0
  0.437500   0.468750 0
  0.437500   0.437500 0
  0.468750   0.437500 0
  0.468750   0.468750 0
  0.406250   0.281250 0
  0.406250   0.312500 0
  0.062500   0.375000 0
  0.406250   0.343750 0
  0.062500   0.406250 0
  0.500000   0.468750 0
  0.500000   0.500000 0
  0.437500   0.281250 0
  0.437500   0.312500 0
  0.437500   0.343750 0
  0.093750   0.406250 0
  0.437500   0.375000 0
  0.093750   0.437500 0
  0.468750   0.375000 0
  0.125000   0.437500 0
  0.500000   0.281250 0
  0.468750   0.281250 0
  0.500000   0.312500 0
  0.468750   0.312500 0
  0.468750   0.343750 0
  0.500000   0.343750 0
  0.843750   0.906250 0
  0.156250   0.187500 0
  0.468750   0.187500 0
  0.468750   0.218750 0
  0.468750   0.250000 0
  0.406250   0.031250 0
  0.750000   0.812500 0
  0.062500   0.093750 0
  0.406250   0.000000 0
  0.750000   0.781250 0
  0.062500   0.062500 0
  0.500000   0.187500 0
  0.500000   0.218750 0
  0.500000   0.250000 0
  0.437500   0.031250 0
  0.781250   0.812500 0
  0.093750   0.093750 0
  0.437500   0.000000 0
  0.437500   0.062500 0
  0.781250   0.843750 0
  0.093750   0.125000 0
  0.406250   0.187500 0
  0.406250   0.250000 0
  0.406250   0.218750 0
  0.437500   0.250000 0
  0.437500   0.218750 0
  0.437500   0.187500 0
  0.500000   0.000000 0
  0.500000   0.031250 0
  0.468750   0.031250 0
  0.468750   0.000000 0
  0.500000   0.062500 0
  0.468750   0.062500 0
  0.812500   0.843750 0
  0.125000   0.125000 0
  0.812500   0.875000 0
  0.125000   0.156250 0
  0.500000   0.093750 0
  0.843750   0.875000 0
  0.156250   0.156250 0
  1.000000   1.000000 0
  0.312500   0.281250 0
  0.656250   0.218750 0
  0.437500   0.156250 0
  0.312500   0.500000 0
  0.437500   0.125000 0
  0.312500   0.468750 0
  0.437500   0.093750 0
  0.781250   0.031250 0
  0.312500   0.437500 0
  0.312500   0.406250 0
  0.312500   0.312500 0
  0.312500   0.343750 0
  0.312500   0.375000 0
  0.375000   0.437500 0
  0.375000   0.406250 0
  0.375000   0.343750 0
  0.718750   0.281250 0
  0.375000   0.375000 0
  0.968750   1.000000 0
  0.281250   0.281250 0
  0.406250   0.156250 0
  0.281250   0.500000 0
  0.406250   0.125000 0
  0.281250   0.468750 0
[...]
CELL_DATA 1024
SCALARS scalar_value float 1
LOOKUP_TABLE default
0.0596947
0.105194
-0.00763684
0.0134546
0.112576
0.00480659
0.0101025
0.0413693
0.0665012
0.00846568
-0.00922834
0.0117079
0.0656852
0.0110415
0.0546586
0.048758
0.0377674
0.0123819
-0.0192115
0.0491731
0.0567852
0.0469994
0.0563173
0.0558766
-0.00222136
-0.0242619
0.0249703
0.0553892
0.0375833
-0.0222371
-0.0322191
0.110158
-0.0216422
-0.0181918
-0.000567066
-0.000182128
-0.00386395
-0.0012352
-0.0118018
-0.0133222
-3.34278e-06
8.78347e-05
-0.00617843
-0.0087077
-0.0442304
-0.0510809
-0.0155977
-0.0362625
0.0163652
0.0134325
-0.0343128
-0.0568824
-0.0271078
-8.69365e-05
-0.00615872
-0.00050051
-0.00401226
-0.00180707
-0.0189676
-0.000267838
-0.0118477
-0.00537116
-0.00156008
-3.32093e-05
0.262375
-0.0932684
-0.00902059
0.0952728
-0.0781597
-0.0270894
0.316501
0.242997
0.0538963
-0.014768
0.0172953
-0.000827476
-0.0789888
0.00223276
0.00429804
0.0954875
0.0677396
0.00304666
-0.0283908
-0.029741
0.00940018
-0.00851613
0.0499617
-0.036664
0.0112344
-0.0826039
0.0420465
-0.0280328
-0.0437599
0.144631
0.0715275
0.0729574
0.0272613
0.00961244
-0.01538
-0.0460849
-0.0168201
0.022812
0.024245
0.00146788
-0.0108792
0.0212911
-0.00403545
0.00426271
0.0249997
-0.0496496
0.146909
0.000725642
0.00121358
-0.0240387
0.0276308
0.0190047
0.0182574
-0.0510796
-0.0262755
-0.00758983
0.00112125
-0.00437354
-0.0109727
-0.00584768
0.00458699
-0.0340958
-0.00885832
-0.0198578
0.0525237
0.370515
2.14764
0.0288192
0.0123757
-0.0338547
-0.107851
0.0520543
-0.106621
0.948845
0.967586
-0.0563874
0.0128568
-0.0984969
-0.0535077
0.0326061
0.35374
-0.0126333
-0.00130928
0.118982
0.297305
0.492594
0.0775772
0.0481183
0.0958344
-0.0349691
0.210574
0.932625
0.066371
0.139428
0.0820596
-0.00869007
0.00386088
-0.0350463
-0.0428564
4.60675
4.55357
4.69832
4.35606
2.19073
0.129382
-0.0250858
4.62783
3.98534
1.21006
3.74519
-0.0741521
-0.0189723
0.0122721
0.00640512
-0.0453543
0.00512011
-0.0102815
0.142058
0.294084
-0.0240456
-0.00978344
0.00785675
-0.0181877
-0.0124631
0.0251717
0.302645
2.00029
3.63709
3.73308
4.2389
3.99972
4.07763
3.8043
4.18385
4.14586
3.55791
3.72857
3.96164
4.03764
4.01726
2.97306
2.56617
3.29629
1.62404
0.560415
1.60021
2.60728
0.0908793
0.0618423
1.48629
0.0667925
0.123966
-0.0140679
-0.022637
0.700218
0.150715
1.16942
1.53312
0.180372
0.732932
1.06409
0.722224
3.04928
1.75873
0.466478
-0.184955
-0.214035
-0.109641
0.0620141
-0.136218
-0.232889
0.189093
0.317203
1.21976
3.71266
1.16226
0.0411502
0.38651
1.55998
3.99381
2.73879
3.7983
3.85789
4.50445
4.55687
4.57863
4.60731
4.44242
2.79671
2.41496
3.89356
3.78771
-7.21242e-06
1.52645e-06
8.26992e-07
-1.12412e-07
3.8472e-06
2.2026e-05
3.13807e-07
-2.50417e-06
1.67283e-07
5.40605e-09
1.0665e-08
1.84887e-07
-3.48693e-05
6.06765e-07
-9.15774e-08
5.0374e-08
8.03701e-07
4.36525e-06
6.28306e-07
-1.03248e-05
6.0773e-07
-6.74093e-07
6.7831e-08
7.86843e-07
-3.53448e-08
1.7932e-08
2.44358e-08
-6.45198e-09
2.81209e-09
2.18554e-09
-7.76243e-09
-2.63804e-09
0
-8.21129e-10
-1.75584e-10
0
2.92953e-07
-3.21632e-07
3.69533e-08
8.47364e-10
-7.1849e-08
7.12461e-08
-6.00464e-08
-1.03796e-07
-8.56539e-08
2.69463e-08
3.89421e-09
1.30971e-08
-3.18604e-09
-3.32282e-08
7.24485e-08
-4.41986e-09
1.09488e-08
-1.81186e-09
1.74174e-09
-2.95069e-09
-7.01559e-09
-4.66506e-10
-8.69191e-10
0
1.41236e-09
5.76543e-10
4.74285e-10
-2.75717e-09
0.00195157
0.00100925
0.0118357
0.000469913
-0.000797337
-0.000189174
0.000239501
-8.41319e-05
0.0103394
-0.0019139
0.298954
-0.134442
0.00458747
0.00628222
-0.00107868
-0.00270606
-1.97404e-06
-3.56632e-05
0.00551115
0.000343306
0.000213684
-2.82682e-05
-9.38565e-06
1.13198e-05
-3.35937e-05
0.000101168
1.47901e-05
-5.69223e-05
0.000640004
3.65547e-06
-1.55852e-05
1.61491e-06
-8.10711e-05
-0.000272216
-0.000445951
-2.04259e-05
-1.42903e-05
-1.75279e-05
2.51216e-06
-1.78117e-06
1.4607e-06
6.83234e-07
-0.000151436
-5.52976e-05
-8.02671e-06
-2.63437e-05
-8.08559e-06
8.40237e-07
3.70141e-07
-2.37011e-05
-6.77532e-06
-8.47653e-07
1.68636e-06
-8.22523e-07
2.4592e-07
3.16641e-07
1.2428e-06
5.08508e-07
-7.82297e-07
-1.58212e-06
3.06725e-08
-3.54228e-07
-1.04495e-06
6.15194e-07
0.310081
1.86144
-0.0732848
-0.0163164
1.56389
4.36774
2.66159
-0.0236863
-0.013886
4.25631
2.05335
4.7318
3.57143
3.91212
4.26404
4.56694
4.5843
4.66014
4.618
0.704578
0.0617919
0.083472
0.0404985
0.00719525
0.00243736
-0.0023946
0.476838
0.252674
-0.00030727
0.263049
0.0438974
-0.00134264
-0.00070472
-0.00245
-0.000193687
-8.15647e-05
-0.000341649
-0.000639808
-0.000249482
-0.000657554
-0.00145925
-0.000121306
-7.89804e-06
-0.000534187
-0.000287637
0.000133156
0.000947125
-0.000516806
-0.000920021
-0.000629433
0.00474741
0.00242217
-6.20044e-05
0.00075469
0.00318938
-1.37337e-05
-0.000117705
-0.000255948
-0.000206466
-3.91916e-06
-1.20525e-05
0.000223547
1.46131e-05
-3.89979e-05
4.29918
4.67762
2.37622
3.51686
4.65183
4.44827
4.52935
4.54633
3.84171
2.8784
3.85772
4.76765
0.545502
3.60806
0.478805
0.00891626
0.836811
0.0101024
4.20068
4.6612
3.93215
3.14095
4.43756
4.64125
0.0206976
4.64901
4.64325
4.63585
1.77812
4.32854
3.94167
-0.0212628
-0.00249745
-0.000640502
-0.0212857
-0.00594844
0.000122979
0.000315732
3.28375e-05
-0.000116001
-0.00107393
-0.00196135
-0.000394088
-0.00466179
0.00127852
-0.000219699
-0.000686783
0.000225503
0.00742904
0.00117977
0.000127323
0.000308694
0.000109398
3.34842e-05
-0.000454293
0.000102051
-0.00152904
-0.00234659
-0.00859192
-0.0078031
-0.00480532
-0.000248262
-0.000565947
-0.000296495
4.75125
4.30072
-0.0555089
0.426347
0.545864
-0.00434059
0.115934
0.256069
0.339955
3.63516
4.612
4.69205
4.49178
4.08411
4.72264
4.75972
-0.473553
-0.146916
-0.535253
-0.0907013
1.96227
1.07643
2.90482
3.70286
0.529165
0.332446
3.29721
-0.420138
-0.187202
0.0524641
0.224308
0.205988
4.59744
1.71633
2.7859
-0.196581
-0.14104
1.61695
2.5343
0.783144
0.144974
-0.175663
-0.236394
3.14706
3.28158
4.53336
4.42712
4.35469
4.48764
4.05727
3.66264
4.62956
4.7827
4.99774
4.50521
4.46087
4.98137
5.05687
0.0303582
-0.017676
0.224617
0.63151
0.313889
0.443077
-0.00250744
0.000640589
4.47067e-06
0.000725592
0.000662569
-0.00129477
0.00133511
0.00819576
0.0186293
-0.00503823
-0.00370847
-0.00349407
0.0112169
0.00386643
0.0112278
0.0071766
-0.00370566
0.00236058
-0.00852722
-0.00928238
0.0136466
0.0144517
-0.00219411
0.00816611
-0.0190578
-0.0302745
-0.00442442
0.0103002
-0.0246383
-0.0271157
-0.0313906
-0.0287423
0.0266741
0.0291568
0.00459919
0.00538729
0.00146724
0.0297266
0.0277342
0.0186594
0.0061933
0.000519926
0.00224251
-0.0021223
-0.00221417
-0.00425906
0.00152977
0.00214536
0.0140931
0.016726
0.021928
0.0264376
-0.025239
-0.0451832
0.0243144
0.00596351
-0.12241
-0.0302985
-0.0413335
-0.0258022
-0.0240017
-0.0711321
-0.145194
-0.116698
0.00183772
-0.00141537
0.0110763
0.0107259
-0.00478798
0.00505344
-0.00226613
-0.00625867
0.00766313
0.00548251
0.0055071
-2.81677e-05
-0.017621
-0.00724693
-0.0109465
-0.00924538
-0.0072433
-0.0202222
0.00284662
0.00375388
0.00170849
0.00574861
0.00229258
0.00874179
0.00582186
0.00816617
0.00506785
-2.97292e-05
0.00676761
0.00504559
0.000869267
0.00362331
0.00201453
0.00331468
0.000313254
0.000633843
0.00131506
0.00148384
-0.000272335
0.00404508
0.000332989
7.87765e-05
-0.00700642
-0.00538588
0.00767675
0.00439581
0.00123036
0.000834608
0.0017596
0.00243896
-0.00451168
-0.00137206
0.000143085
2.20615e-05
-0.000522824
-0.00317013
0.00139107
0.000370758
0.00112363
0.00182546
0.000773297
0.000739031
-0.00507174
-0.00132204
-0.0127933
-0.00340871
-0.0241026
-0.0100984
-0.00116292
0.000256742
0.0012759
0.0988165
0.465919
0.110693
0.230798
0.0060476
-0.0304893
0.00640443
-0.00202718
0.00567083
0.00331324
0.00037303
0.000107756
-0.00706066
-0.0105537
-0.00450662
-0.00115304
0.00141901
0.00215857
0.00473986
-0.00416697
-0.0148303
-0.0114561
-0.0157679
-0.0252263
0.000554709
0.000294563
0.000133099
0.000415282
0.000467728
4.66317e-05
1.04409e-05
1.69186e-06
3.11112e-07
-8.16056e-06
-2.32992e-05
2.33121e-05
-0.000684683
-1.40367e-05
-2.03389e-05
-3.43182e-06
-7.05381e-07
4.54589e-06
0.000862768
0.00147511
0.000439252
0.000199759
5.94315e-06
1.01463e-06
0.0001089
3.08212e-05
0.00104257
0.000591185
0.00216102
0.00298749
3.60892e-05
0.000302123
9.56925e-05
3.34037
3.10704
-0.00820954
-0.00460435
0.00984371
-0.00600821
0.0176127
0.881443
4.10367
2.9373
-0.00448158
0.0008068
-0.0382883
0.0184061
-0.0934405
0.907567
4.25536
3.63659
4.73817
4.60627
4.70654
2.34008
-0.00133927
-0.0460498
4.57092
4.59554
3.4296
4.36815
1.74402
0.227962
0.00958297
-0.00397028
0.00380278
0.00352589
0.000120344
-2.97235e-05
-5.73523e-05
0.000117036
0.0127429
6.49482e-05
-9.8499e-05
6.81775e-05
-6.17567e-05
-0.000115967
-4.25434e-05
-0.00139004
0.00151818
0.00514678
0.000887125
-4.87637e-05
0.00389226
0.000805131
0.0045999
0.00590432
0.000130047
-6.6255e-05
5.85781e-05
-0.0111418
-0.00120586
-0.00169577
0.000911518
0.000279931
1.30869e-05
2.03771e-05
0.00027049
0.00016342
0.00280733
0.00100475
-6.24009e-05
-6.28931e-05
0.000146458
0.00104695
-3.56954e-06
3.11136e-05
-0.00013418
-8.35984e-05
1.75895e-05
-0.000534279
-0.060156
3.07336e-05
1.20943e-05
-3.98319e-05
-0.00564442
-0.031283
0.00330539
0.00274765
-0.00363373
-0.00168974
-0.000890952
-0.00188681
-0.000606679
-0.00033345
-0.00116157
-0.000437303
-0.0010382
-0.000383516
4.83876e-05
-1.39442e-05
2.03617e-05
-7.36739e-05
1.20322e-06
-5.53782e-06
9.58169e-07
1.14068e-05
-1.88969e-05
3.85052e-07
-8.28395e-07
-5.09979e-07
6.57871e-07
-6.94862e-08
0.000190789
4.4312e-05
0.000548776
0.00051494
6.24071e-05
-8.68568e-06
-3.14411e-05
4.76232e-06
-9.21283e-08
-1.89616e-08
4.19036e-05
-0.000145566
-7.18325e-05
3.2128e-05
6.99925e-06
4.19831e-06
-2.34702e-07
-1.09334e-05
-2.85839e-07
-2.10164e-06
1.23679e-05
1.88698e-05
3.59785e-07
2.03501e-06
1.94934e-07
9.95242e-08
3.73478e-08
-1.92597e-07
-1.79458e-07
3.83534e-08
1.37293e-05
6.68865e-07
4.74642e-07
-9.68963e-08
7.52631e-07
-7.7214e-07
-5.64855e-07
-1.51815e-06
-4.08115e-06
3.20726e-06
1.81397e-06
6.87492e-05
3.3468e-06
-3.04843e-07
-1.04787e-05
1.16513e-05
2.75105e-05
-1.42001e-05
0.000296151
6.01736e-05
1.76503e-09
1.58813e-08
-3.00411e-08
0
-2.45949e-10
6.64509e-09
-2.12006e-08
2.45579e-08
-3.43514e-08
-5.0277e-08
2.34845e-08
-1.99358e-09
-1.83123e-09
2.19478e-08
-3.57547e-09
-9.94579e-09
1.79711e-08
2.12168e-07
-2.66774e-06
-3.98159e-08
-4.27597e-08
-8.32257e-07
3.45697e-08
-1.42267e-08
-6.28561e-07
1.23543e-06
-6.81696e-08
2.40226e-07
3.17493e-08
-7.77469e-09
-3.00447e-09
4.63575e-10
8.34783e-08
-4.47451e-08
-3.5033e-07
2.11957e-08
1.91713e-09
-3.42189e-09
-2.1011e-09
-1.43505e-10
0
1.14668e-10
3.38686e-09
6.66169e-09
8.8633e-10
4.29944e-09
-1.53188e-09
-1.3291e-09
3.69085e-08
1.31165e-07
1.32911e-09
-7.59739e-09
-2.01044e-09
6.27841e-10
-7.49028e-09
-5.39088e-09
3.60223e-08
-1.82872e-08
9.42456e-08
2.32176e-07
1.11805e-08
-3.9466e-09
-2.56468e-08
-1.38955e-08
0
0
-1.37408e-10
0
0
1.99987e-10
0
0
0
0
0
0
3.88981e-09
0
0
0
0
-6.22441e-10
0
2.78531e-09
-1.4288e-09
-1.81212e-09
-2.62416e-10
7.63985e-10
0
0
6.60342e-10
0
0
0
1.47006e-10
0
