# vtk DataFile Version 2.0
Unstructured Grid by M++
ASCII
DATASET UNSTRUCTURED_GRID
POINTS 1089 float
  0.968750   0.906250 0
  0.968750   0.937500 0
  1.000000   0.906250 0
  1.000000   0.937500 0
  1.000000   0.968750 0
  0.906250   0.906250 0
  0.906250   0.875000 0
  0.906250   0.812500 0
  0.906250   0.843750 0
  0.937500   0.906250 0
  0.937500   0.937500 0
  0.937500   0.843750 0
  0.937500   0.875000 0
  0.968750   0.875000 0
  0.968750   0.656250 0
  0.968750   0.687500 0
  1.000000   0.656250 0
  1.000000   0.625000 0
  1.000000   0.687500 0
  0.906250   0.656250 0
  0.906250   0.687500 0
  0.906250   0.625000 0
  0.906250   0.531250 0
  0.906250   0.562500 0
  0.906250   0.593750 0
  0.937500   0.656250 0
  0.937500   0.687500 0
  0.937500   0.531250 0
  0.937500   0.562500 0
  0.937500   0.593750 0
  0.937500   0.625000 0
  0.968750   0.625000 0
  0.968750   0.593750 0
  1.000000   0.593750 0
  0.968750   0.562500 0
  1.000000   0.562500 0
  1.000000   0.531250 0
  0.968750   0.531250 0
  0.781250   1.000000 0
  0.812500   0.781250 0
  0.812500   0.812500 0
  0.875000   0.843750 0
  0.875000   0.812500 0
  0.875000   0.875000 0
  0.781250   0.781250 0
  0.843750   0.843750 0
  0.843750   0.812500 0
  0.875000   0.781250 0
  0.843750   0.781250 0
  0.781250   0.750000 0
  0.781250   0.718750 0
  0.781250   0.687500 0
  0.812500   0.750000 0
  0.812500   0.718750 0
  0.812500   0.531250 0
  0.812500   0.687500 0
  0.812500   0.656250 0
  0.812500   0.562500 0
  0.812500   0.593750 0
  0.812500   0.625000 0
  0.875000   0.687500 0
  0.875000   0.656250 0
  0.875000   0.593750 0
  0.875000   0.562500 0
  0.875000   0.625000 0
  0.781250   0.531250 0
  0.781250   0.562500 0
  0.781250   0.625000 0
  0.781250   0.593750 0
  0.781250   0.656250 0
  0.843750   0.656250 0
  0.843750   0.593750 0
  0.843750   0.562500 0
  0.843750   0.625000 0
  0.843750   0.687500 0
  0.843750   0.750000 0
  0.875000   0.531250 0
  0.843750   0.531250 0
  0.656250   0.906250 0
  0.656250   0.937500 0
  0.656250   1.000000 0
  0.656250   0.968750 0
  0.687500   1.000000 0
  0.687500   0.968750 0
  0.687500   0.937500 0
  0.718750   0.937500 0
  0.718750   0.968750 0
  0.718750   1.000000 0
  0.656250   0.781250 0
  0.656250   0.812500 0
  0.656250   0.843750 0
  0.656250   0.875000 0
  0.750000   0.968750 0
  0.750000   1.000000 0
  0.750000   0.656250 0
  0.750000   0.625000 0
  0.687500   0.656250 0
  0.687500   0.687500 0
  0.687500   0.625000 0
  0.718750   0.656250 0
  0.718750   0.687500 0
  0.718750   0.718750 0
  0.656250   0.531250 0
  0.656250   0.562500 0
  0.656250   0.656250 0
  0.656250   0.687500 0
  0.656250   0.750000 0
  0.656250   0.718750 0
  0.656250   0.625000 0
  0.656250   0.593750 0
  0.750000   0.687500 0
  0.750000   0.718750 0
  0.750000   0.750000 0
  0.687500   0.531250 0
  0.687500   0.562500 0
  0.687500   0.593750 0
  0.718750   0.625000 0
  0.750000   0.531250 0
  0.718750   0.531250 0
  0.750000   0.562500 0
  0.718750   0.562500 0
  0.718750   0.593750 0
  0.750000   0.593750 0
  0.562500   1.000000 0
  0.562500   0.968750 0
  0.562500   0.937500 0
  0.562500   0.906250 0
  0.562500   0.812500 0
  0.562500   0.843750 0
  0.562500   0.875000 0
  0.625000   0.937500 0
  0.625000   0.906250 0
  0.562500   0.781250 0
  0.625000   0.875000 0
  0.531250   1.000000 0
  0.531250   0.968750 0
  0.531250   0.937500 0
  0.531250   0.812500 0
  0.531250   0.875000 0
  0.531250   0.843750 0
  0.531250   0.906250 0
  0.593750   0.906250 0
  0.593750   0.843750 0
  0.593750   0.875000 0
  0.593750   0.812500 0
  0.625000   0.843750 0
  0.625000   0.812500 0
  0.593750   0.937500 0
  0.625000   1.000000 0
  0.593750   1.000000 0
  0.593750   0.968750 0
  0.625000   0.968750 0
  0.625000   0.781250 0
  0.593750   0.781250 0
  0.562500   0.531250 0
  0.562500   0.750000 0
  0.562500   0.718750 0
  0.562500   0.687500 0
  0.562500   0.656250 0
  0.562500   0.562500 0
  0.562500   0.593750 0
  0.562500   0.625000 0
  0.625000   0.687500 0
  0.625000   0.656250 0
  0.625000   0.593750 0
  0.625000   0.562500 0
  0.625000   0.625000 0
  0.531250   0.531250 0
  0.531250   0.750000 0
  0.531250   0.718750 0
  0.531250   0.687500 0
  0.531250   0.562500 0
  0.531250   0.625000 0
  0.531250   0.593750 0
  0.531250   0.656250 0
  0.593750   0.656250 0
  0.593750   0.593750 0
  0.593750   0.562500 0
  0.593750   0.625000 0
  0.593750   0.687500 0
  0.625000   0.750000 0
  0.593750   0.750000 0
  0.593750   0.718750 0
  0.625000   0.718750 0
  0.625000   0.531250 0
  0.593750   0.531250 0
  0.968750   0.406250 0
  0.968750   0.437500 0
  0.968750   0.468750 0
  0.968750   0.500000 0
  1.000000   0.406250 0
  1.000000   0.375000 0
  1.000000   0.437500 0
  1.000000   0.468750 0
  1.000000   0.500000 0
  0.906250   0.500000 0
  0.906250   0.406250 0
  0.906250   0.437500 0
  0.906250   0.281250 0
  0.906250   0.312500 0
  0.906250   0.343750 0
  0.906250   0.375000 0
  0.937500   0.406250 0
  0.937500   0.500000 0
  0.937500   0.468750 0
  0.937500   0.437500 0
  0.937500   0.281250 0
  0.937500   0.312500 0
  0.937500   0.343750 0
  0.937500   0.375000 0
  0.968750   0.375000 0
  1.000000   0.281250 0
  0.968750   0.281250 0
  1.000000   0.312500 0
  0.968750   0.312500 0
  0.968750   0.343750 0
  1.000000   0.343750 0
  0.968750   0.125000 0
  0.968750   0.156250 0
  0.968750   0.187500 0
  1.000000   0.000000 0
  1.000000   0.156250 0
  1.000000   0.125000 0
  1.000000   0.187500 0
  1.000000   0.218750 0
  0.531250   0.781250 0
  1.000000   0.250000 0
  0.906250   0.250000 0
  0.906250   0.218750 0
  0.937500   0.250000 0
  0.937500   0.218750 0
  0.968750   0.250000 0
  0.906250   0.031250 0
  0.906250   0.000000 0
  0.906250   0.062500 0
  0.906250   0.093750 0
  0.906250   0.125000 0
  0.937500   0.156250 0
  0.937500   0.031250 0
  0.937500   0.000000 0
  0.937500   0.062500 0
  0.937500   0.093750 0
  0.937500   0.125000 0
  1.000000   0.031250 0
  0.968750   0.031250 0
  0.968750   0.000000 0
  1.000000   0.062500 0
  0.968750   0.062500 0
  0.968750   0.093750 0
  1.000000   0.093750 0
  0.781250   0.312500 0
  0.781250   0.343750 0
  0.812500   0.500000 0
  0.812500   0.468750 0
  0.812500   0.437500 0
  0.812500   0.281250 0
  0.812500   0.312500 0
  0.812500   0.343750 0
  0.812500   0.375000 0
  0.875000   0.281250 0
  0.875000   0.406250 0
  0.875000   0.343750 0
  0.875000   0.312500 0
  0.875000   0.375000 0
  0.843750   0.281250 0
  0.843750   0.312500 0
  0.843750   0.375000 0
  0.843750   0.343750 0
  0.781250   0.500000 0
  0.781250   0.468750 0
  0.781250   0.437500 0
  0.781250   0.406250 0
  0.875000   0.500000 0
  0.843750   0.500000 0
  0.843750   0.468750 0
  0.875000   0.468750 0
  0.781250   0.281250 0
  0.843750   0.218750 0
  0.843750   0.250000 0
  0.843750   0.187500 0
  0.843750   0.156250 0
  0.875000   0.218750 0
  0.875000   0.250000 0
  0.875000   0.187500 0
  0.812500   0.062500 0
  0.812500   0.250000 0
  0.812500   0.218750 0
  0.812500   0.187500 0
  0.812500   0.156250 0
  0.812500   0.125000 0
  0.843750   0.093750 0
  0.843750   0.062500 0
  0.875000   0.125000 0
  0.875000   0.093750 0
  0.875000   0.062500 0
  0.781250   0.250000 0
  0.781250   0.218750 0
  0.781250   0.187500 0
  0.093750   0.937500 0
  0.125000   1.000000 0
  0.937500   0.718750 0
  0.250000   0.000000 0
  0.093750   0.968750 0
  0.125000   0.968750 0
  0.000000   0.718750 0
  0.000000   0.750000 0
  0.125000   0.531250 0
  0.125000   0.562500 0
  0.093750   0.531250 0
  0.031250   0.750000 0
  0.125000   0.468750 0
  0.156250   0.468750 0
  0.500000   0.375000 0
  0.156250   0.500000 0
  0.406250   0.406250 0
  0.406250   0.437500 0
  0.406250   0.500000 0
  0.406250   0.468750 0
  0.406250   0.375000 0
  0.750000   0.312500 0
  0.437500   0.406250 0
  0.437500   0.500000 0
  0.437500   0.468750 0
  0.437500   0.437500 0
  0.468750   0.437500 0
  0.468750   0.468750 0
  0.406250   0.281250 0
  0.406250   0.312500 0
  0.062500   0.375000 0
  0.406250   0.343750 0
  0.062500   0.406250 0
  0.500000   0.468750 0
  0.500000   0.500000 0
  0.437500   0.281250 0
  0.437500   0.312500 0
  0.437500   0.343750 0
  0.093750   0.406250 0
  0.437500   0.375000 0
  0.093750   0.437500 0
  0.468750   0.375000 0
  0.125000   0.437500 0
  0.500000   0.281250 0
  0.468750   0.281250 0
  0.500000   0.312500 0
  0.468750   0.312500 0
  0.468750   0.343750 0
  0.500000   0.343750 0
  0.843750   0.906250 0
  0.156250   0.187500 0
  0.468750   0.187500 0
  0.468750   0.218750 0
  0.468750   0.250000 0
  0.406250   0.031250 0
  0.750000   0.812500 0
  0.062500   0.093750 0
  0.406250   0.000000 0
  0.750000   0.781250 0
  0.062500   0.062500 0
  0.500000   0.187500 0
  0.500000   0.218750 0
  0.500000   0.250000 0
  0.437500   0.031250 0
  0.781250   0.812500 0
  0.093750   0.093750 0
  0.437500   0.000000 0
  0.437500   0.062500 0
  0.781250   0.843750 0
  0.093750   0.125000 0
  0.406250   0.187500 0
  0.406250   0.250000 0
  0.406250   0.218750 0
  0.437500   0.250000 0
  0.437500   0.218750 0
  0.437500   0.187500 0
  0.500000   0.000000 0
  0.500000   0.031250 0
  0.468750   0.031250 0
  0.468750   0.000000 0
  0.500000   0.062500 0
  0.468750   0.062500 0
  0.812500   0.843750 0
  0.125000   0.125000 0
  0.812500   0.875000 0
  0.125000   0.156250 0
  0.500000   0.093750 0
  0.843750   0.875000 0
  0.156250   0.156250 0
  1.000000   1.000000 0
  0.312500   0.281250 0
  0.656250   0.218750 0
  0.437500   0.156250 0
  0.312500   0.500000 0
  0.437500   0.125000 0
  0.312500   0.468750 0
  0.437500   0.093750 0
  0.781250   0.031250 0
  0.312500   0.437500 0
  0.312500   0.406250 0
  0.312500   0.312500 0
  0.312500   0.343750 0
  0.312500   0.375000 0
  0.375000   0.437500 0
  0.375000   0.406250 0
  0.375000   0.343750 0
  0.718750   0.281250 0
  0.375000   0.375000 0
  0.968750   1.000000 0
  0.281250   0.281250 0
  0.406250   0.156250 0
  0.281250   0.500000 0
  0.406250   0.125000 0
  0.281250   0.468750 0
[...]
CELL_DATA 1024
SCALARS scalar_value float 1
LOOKUP_TABLE default
0.0563053
-0.0415666
0.0452525
0.0673983
0.0752801
0.0618685
0.118155
0.045992
-0.0146314
0.054169
0.0456195
0.0339644
0.0392308
0.0782997
0.100947
0.0060797
-0.0245068
0.0955117
0.100577
0.0759619
0.0252259
0.0697112
0.0452928
0.00844384
-0.00334007
-0.00184986
0.0663996
0.0184006
0.0335461
-0.00145156
-0.0729127
0.169803
0.00364139
0.0217196
-0.00502881
-0.00398501
-0.0077012
-0.00548842
0.0017051
0.0164273
-0.00524751
-0.0057384
-0.020868
-0.00287859
0.0552643
0.00924273
-0.0130377
-0.0111873
-0.000796633
-0.0641768
-0.0452797
-0.0275417
0.000518163
-0.00136442
-0.00509438
-0.00357623
-0.00725499
-0.00653113
-0.00556567
-0.00177695
-0.0093532
-0.00917466
-0.00525455
-0.000454891
0.115521
0.343442
0.00236598
-0.00373427
-0.00615287
-0.0709872
0.0463768
0.361052
-0.00865472
0.00462016
0.108926
0.297075
0.0743246
0.035594
-0.0819377
-0.0414561
0.0813965
-0.0309543
0.00878374
-0.0201305
0.0853258
0.0448105
0.0991807
0.0431889
-0.0731546
0.00372211
0.0495559
0.0544976
-0.0952224
-0.0188737
0.0396658
-0.048801
-0.00122036
0.00524423
-0.0273026
0.0393963
-0.00555644
0.0183098
0.00826043
0.0272021
-0.0087842
-0.0179144
0.0858081
-0.0366086
0.0117679
0.0480859
0.172092
0.00316212
0.00298488
-0.0258083
0.0277604
-0.0213213
0.0226275
-0.0119536
-0.00600829
-0.0370333
0.0343386
-0.0129687
-0.0215961
0.0102343
-0.00388795
0.054736
0.123979
-0.0156199
0.0853052
2.61924
1.9434
-0.0457388
-0.00228389
0.0722117
-0.105601
0.200224
1.90591
0.290804
0.81289
-0.0160208
0.0689594
-0.00987647
0.0631354
0.558771
1.39424
-0.00158788
0.00468918
0.289615
0.65476
-0.00624718
0.106608
0.0561994
-0.0307218
0.00677164
1.13991
0.189602
0.146781
0.0065883
-0.141471
-0.101164
-0.0123325
1.39822
0.679328
4.61538
4.60853
4.65162
4.52781
3.58093
2.07773
0.0290696
4.69901
4.56485
2.20464
4.35578
0.177175
-0.0516898
0.0252719
-0.0246418
0.00677296
-0.0358036
-0.00688151
0.0427979
0.680075
-0.00972468
-0.00646194
-0.00309505
-0.0197804
-0.0113912
-0.115006
0.839938
2.94998
4.35006
4.37695
4.10079
4.25119
3.20035
2.9901
3.09156
2.68721
4.45771
4.55703
4.71878
4.68953
3.68189
2.39561
1.73876
2.4854
0.8249
0.0630828
3.76975
3.61774
2.91098
1.52118
3.06431
0.416197
0.677058
1.96713
0.524362
3.70361
3.40108
3.93219
4.44963
3.2378
3.43864
0.165305
0.0569707
1.63936
0.403255
-0.0134227
-0.101927
-0.124322
-0.0705611
-0.0626739
-0.167146
-0.155041
-0.105489
-0.0335124
0.545512
4.33955
3.90096
3.31572
0.065936
1.01353
3.55292
4.55018
2.37355
2.46872
4.00926
4.43706
4.1955
4.47899
3.94047
1.54785
1.45227
2.51694
2.46572
-0.000563662
-0.00236959
-7.18773e-07
1.56975e-06
2.75602e-07
-3.6846e-05
-4.55874e-06
-6.75693e-05
6.30801e-08
4.02038e-08
-2.07233e-09
-1.27569e-07
-0.0012005
-0.000125658
1.90054e-07
3.07123e-07
-3.14379e-07
-4.93683e-06
-2.36613e-05
-0.00028226
-1.72913e-06
-8.14844e-07
-6.64675e-08
-7.34088e-07
1.76792e-08
2.24855e-09
1.08739e-08
1.9174e-08
2.36362e-09
-1.62315e-10
4.00624e-09
7.27106e-10
-2.14786e-10
1.45206e-09
1.18643e-10
0
-2.22449e-08
1.30531e-07
-1.09895e-07
2.63496e-08
1.70646e-07
-1.72303e-07
3.4889e-07
-1.87003e-07
6.78017e-08
7.78283e-08
7.67137e-09
2.10914e-08
-2.57826e-08
-7.20725e-09
-6.7577e-08
-5.86906e-09
-6.77775e-09
6.60953e-09
-3.70158e-09
-1.469e-08
1.55014e-08
-1.3201e-09
1.01729e-09
-1.56809e-09
9.94206e-10
-2.81625e-10
-3.62552e-09
1.93312e-09
-0.00845149
-0.000801511
0.0567644
-0.0173523
1.52958e-05
-5.44523e-05
-0.000343961
-0.000312697
0.751603
-0.00505641
1.41725
-0.390537
0.000525002
-0.0179465
0.00192359
-1.19262e-05
-1.4205e-06
-0.00556661
0.0282268
-0.0013734
-6.04731e-06
8.54839e-06
-9.99004e-06
-3.24597e-05
-7.66914e-05
-0.000253053
-1.20743e-05
-0.00226616
-0.000805255
4.47905e-07
4.46734e-06
4.69166e-06
-7.81869e-05
-0.00018145
-0.000760452
-4.26879e-06
-6.88223e-06
-3.05645e-06
-2.08026e-06
-5.84601e-06
-1.42967e-06
-2.29604e-06
1.49419e-05
-1.2768e-06
-1.26791e-05
-4.05655e-06
-3.08988e-06
2.51797e-06
5.22763e-06
1.97437e-05
-6.70681e-06
1.01778e-06
-6.39732e-07
-2.89002e-08
-1.72807e-06
2.28279e-06
1.04611e-06
-2.58932e-06
8.58288e-07
-1.30776e-06
3.06942e-08
-1.63019e-07
1.24244e-06
-8.72504e-08
2.67882
3.96552
0.315215
0.0169014
3.47863
4.65918
3.26265
0.567361
0.00995108
4.68922
3.64105
4.70253
4.34996
4.45502
4.53233
4.43173
4.59631
4.64864
4.59602
3.35721
0.550227
0.00692027
0.0699606
0.028068
-0.00154778
0.0005251
1.06192
1.42153
0.010436
0.804477
0.225569
-0.00107379
-0.000920538
-0.000628508
0.000272636
0.000110906
0.000548331
-7.77239e-06
-0.0012193
-0.000760217
0.00124902
-2.16965e-05
-2.25134e-05
0.000183062
-0.000242389
-0.00463485
-0.00597693
-0.000673752
-0.0010705
-0.00308066
-0.00438368
-0.000103508
0.000595194
2.27649e-05
-0.0023852
3.81914e-05
0.000164278
1.93897e-05
0.00020361
-4.46287e-06
-5.14252e-06
-0.000349256
-5.97893e-05
3.1627e-05
4.12275
4.57362
1.78407
3.18551
4.68851
4.60543
4.2771
4.68756
3.58254
2.46263
4.50488
4.60444
1.68078
4.42037
1.72038
-0.0189403
2.43897
0.021491
4.56813
4.66014
3.50443
2.53647
4.24761
4.5823
-0.010712
4.64659
4.58926
4.6425
3.29652
4.05111
3.42238
0.122663
0.00665846
0.00211432
0.0117726
0.0095557
0.000593454
-7.61938e-06
-5.17179e-05
0.000180951
0.00121348
0.00225575
-0.00126802
0.00481299
-0.00632897
-0.00735117
-0.000891844
-0.00077729
-0.0109101
-0.0069343
0.000405065
0.00108206
7.57543e-05
6.39364e-05
0.00057883
-8.26133e-05
0.00142156
0.00204588
0.00147055
-0.00514161
-0.00110976
0.000818883
0.000577689
0.000303544
4.48307
3.9711
0.623509
1.26773
1.44541
0.829611
1.07398
1.21078
1.2127
4.42274
3.90516
4.12926
4.64336
4.55765
4.58599
4.38097
-0.377275
-0.0710974
-0.458008
0.499733
1.57157
0.780513
2.4868
3.31606
0.321227
0.151322
4.3297
-0.410366
-0.287745
-0.166747
-0.0853547
-0.097575
4.5133
0.944221
2.17277
0.32215
0.378505
2.55223
3.37587
1.59832
0.905484
0.556906
0.408921
4.25415
4.2005
4.68265
4.57775
4.67233
4.77543
4.42521
4.24754
4.32466
4.81769
4.9153
4.63596
4.43954
4.77975
4.90958
-0.163696
0.0490622
0.355866
0.0483477
0.391618
0.550322
0.0099573
0.00476936
0.00414775
0.00595362
0.00575983
0.00491119
0.0054146
0.0040558
-0.000919761
0.00136526
0.000173319
0.00480256
-0.000201097
0.000206483
-0.00352221
-0.00693863
0.0160498
0.0173636
0.0129359
0.0106113
0.0110984
0.0213552
0.00876559
0.00738888
0.0620544
0.055222
0.0647254
0.0623452
0.00561121
0.0250772
0.0481608
0.0404623
-0.00441542
-0.00125525
-0.00536991
-0.00697397
-0.00438071
0.00482123
0.00980712
0.00906544
0.0047327
0.00300609
0.00742322
-0.00435659
-0.000674459
-0.00435015
0.0043613
0.0053135
0.0169684
0.00615508
0.00390163
0.00553424
-0.0428354
-0.0506039
0.00162483
-0.016159
-0.222763
0.00585065
-0.0243708
0.00974781
0.000950368
-0.0850081
-0.259315
-0.177403
-0.00823643
-0.00830073
-0.00319134
-0.00109538
0.000127691
-0.00149736
-0.0116664
-0.00675881
-0.00426857
-0.000865878
-0.00515976
-0.00859088
0.0288181
-0.0418793
-0.0139423
-0.0385418
0.0402795
0.00203992
-0.00637829
-0.00661403
-0.00253628
0.000585854
-0.0051531
0.000273916
-0.00371721
-0.00164783
-0.00599505
-0.00216453
-0.00290762
-0.000169042
9.75286e-05
-0.00436127
0.0012165
0.00118652
0.000322041
0.000528539
0.000909844
0.000937264
-0.00194239
-0.00329346
0.00046183
0.000148247
-0.00307458
-0.00243957
0.000588493
0.00105648
0.00109832
0.000904977
0.00124726
0.0011414
-0.00143705
-0.000354442
0.000186454
3.98382e-05
0.000124806
-0.00126648
0.00154063
0.000703885
0.00159684
0.00211131
0.00180071
0.00209287
-0.00219007
0.00050563
0.000333531
-0.0145123
0.104493
0.13449
-0.00901533
-0.00367114
-0.000606023
0.126158
0.0996446
0.191104
-0.0580841
0.0215194
0.448552
0.0074782
0.00267518
-0.00299657
-0.000839808
-0.000275713
-0.00155973
-0.0303866
0.010826
-0.00830096
-0.00386087
-6.21556e-05
-0.000211942
-0.00688101
-0.0108474
-0.0324251
-0.0193533
0.116766
0.148087
2.89009e-05
0.000101679
6.10677e-05
-0.000161963
6.20696e-05
3.09583e-05
8.77876e-06
1.68719e-06
5.2918e-07
-0.000139603
-9.57825e-05
-7.4182e-05
0.000425446
-3.00191e-05
-5.5165e-05
-9.33681e-06
-3.21999e-06
7.84662e-06
0.000229878
-4.95613e-05
0.000187071
0.000107263
7.4272e-06
1.57324e-06
8.01177e-05
2.94842e-05
0.000436459
0.000360621
0.000479483
-1.99598e-05
4.70913e-05
0.000234632
9.63724e-05
3.87159
4.10871
0.00631911
-0.00256365
-0.00907125
-0.00247334
0.946143
3.40065
4.4949
4.183
0.00472837
-0.00916626
-0.109689
0.0202357
0.904817
3.20834
4.06784
3.26881
4.70465
4.6573
4.56184
3.75372
0.0196188
0.291939
4.58925
4.71466
4.16873
4.53787
2.70776
0.669326
-0.000944305
0.0101572
0.000244593
-0.00142983
-5.43092e-05
2.46828e-05
-6.71462e-05
5.00509e-05
-0.00510793
-9.95236e-05
-3.52578e-06
1.18984e-05
0.00014346
0.000271746
0.000189006
0.00144503
-0.00159628
-0.00277228
-0.000956869
0.0102336
-0.00114067
-0.00150078
-0.00331043
-0.00548198
-0.000279861
9.22782e-05
-3.5e-05
0.0060341
0.0033424
0.00585182
-0.000118415
-0.000162024
9.62108e-05
-9.82147e-05
0.000657888
-7.65115e-05
0.00945571
0.00389953
0.000185773
9.14154e-05
0.00088798
0.00334667
3.40895e-05
-3.78051e-05
0.000109402
5.76848e-05
-3.95256e-05
0.179832
-0.023821
-1.00362e-05
-4.46036e-06
5.08085e-05
0.0320281
-0.0163628
0.0333639
0.162532
0.0246763
-0.000559051
-0.00262143
-0.000640042
-0.000717901
0.0032231
0.000454586
0.000164882
0.00130278
-0.000307806
-5.32851e-05
2.58325e-05
-2.06526e-05
4.38641e-05
-2.9725e-06
7.5656e-06
-8.21429e-07
-9.55022e-06
1.53398e-05
-4.64304e-07
9.40692e-07
2.57793e-06
-1.88433e-06
2.08884e-07
-0.000186582
1.99511e-05
-0.000383973
-6.34283e-05
-1.45735e-05
-5.49735e-05
1.77162e-05
-4.94828e-06
1.00827e-07
7.84678e-08
-6.67927e-05
9.91377e-05
5.96785e-05
-7.34378e-05
1.64531e-05
6.99871e-07
-8.48159e-07
1.06287e-06
4.0568e-07
3.31535e-06
-1.23494e-05
-2.2163e-05
2.22189e-06
6.70771e-06
1.21992e-07
-1.6061e-07
1.76452e-07
-4.82222e-07
-6.39927e-07
4.12886e-07
3.74092e-05
4.54597e-06
-4.07843e-07
3.54835e-07
-4.54177e-07
6.67717e-07
5.96025e-07
4.72202e-06
7.2377e-06
-4.04699e-07
-4.05426e-07
0.000193828
3.03591e-05
2.50083e-07
-1.18252e-07
-2.33461e-05
-4.34871e-06
1.74493e-05
0.000847695
0.000163877
-3.7184e-09
-5.48976e-10
-4.02063e-08
0
1.93392e-09
-1.15423e-08
2.21445e-08
-1.43078e-08
1.14383e-08
8.91561e-08
-3.20813e-08
-2.56476e-09
-8.81744e-10
-3.53664e-08
1.57621e-08
1.40698e-08
-2.4255e-08
-6.72045e-07
4.01845e-06
1.2075e-07
-7.59356e-08
1.27361e-06
-7.76531e-08
3.34107e-08
6.77269e-07
-1.85491e-06
1.3121e-07
-3.3147e-07
-5.37543e-08
1.09505e-08
5.87455e-09
-1.17354e-09
2.55071e-07
-3.25811e-07
-1.44144e-06
7.23126e-08
-3.25774e-09
-1.88374e-08
-7.14785e-09
4.85875e-09
6.4779e-09
0
-5.9105e-08
-7.05384e-09
8.08614e-10
1.14535e-09
-8.8578e-10
-7.00948e-10
9.58472e-08
2.93538e-07
-1.02243e-07
-1.16893e-07
6.84171e-09
2.98267e-09
-2.66703e-08
1.08965e-08
-4.13147e-08
-3.25536e-08
8.79223e-09
2.23363e-07
-2.43762e-08
8.22287e-09
7.49471e-08
7.37055e-08
4.02566e-10
-2.19806e-09
0
0
0
1.11454e-10
-2.64772e-10
0
0
0
0
0
4.75009e-09
0
0
0
0
2.25347e-09
2.33299e-09
-8.59357e-09
2.72251e-09
2.49255e-09
1.04271e-09
4.40848e-09
1.31764e-10
1.6968e-10
-6.68695e-10
-5.7109e-10
0
0
-5.10247e-10
-1.61926e-10
