# vtk DataFile Version 2.0
Unstructured Grid by M++
ASCII
DATASET UNSTRUCTURED_GRID
POINTS 1089 float
  0.968750   0.906250 0
  0.968750   0.937500 0
  1.000000   0.906250 0
  1.000000   0.937500 0
  1.000000   0.968750 0
  0.906250   0.906250 0
  0.906250   0.875000 0
  0.906250   0.812500 0
  0.906250   0.843750 0
  0.937500   0.906250 0
  0.937500   0.937500 0
  0.937500   0.843750 0
  0.937500   0.875000 0
  0.968750   0.875000 0
  0.968750   0.656250 0
  0.968750   0.687500 0
  1.000000   0.656250 0
  1.000000   0.625000 0
  1.000000   0.687500 0
  0.906250   0.656250 0
  0.906250   0.687500 0
  0.906250   0.625000 0
  0.906250   0.531250 0
  0.906250   0.562500 0
  0.906250   0.593750 0
  0.937500   0.656250 0
  0.937500   0.687500 0
  0.937500   0.531250 0
  0.937500   0.562500 0
  0.937500   0.593750 0
  0.937500   0.625000 0
  0.968750   0.625000 0
  0.968750   0.593750 0
  1.000000   0.593750 0
  0.968750   0.562500 0
  1.000000   0.562500 0
  1.000000   0.531250 0
  0.968750   0.531250 0
  0.781250   1.000000 0
  0.812500   0.781250 0
  0.812500   0.812500 0
  0.875000   0.843750 0
  0.875000   0.812500 0
  0.875000   0.875000 0
  0.781250   0.781250 0
  0.843750   0.843750 0
  0.843750   0.812500 0
  0.875000   0.781250 0
  0.843750   0.781250 0
  0.781250   0.750000 0
  0.781250   0.718750 0
  0.781250   0.687500 0
  0.812500   0.750000 0
  0.812500   0.718750 0
  0.812500   0.531250 0
  0.812500   0.687500 0
  0.812500   0.656250 0
  0.812500   0.562500 0
  0.812500   0.593750 0
  0.812500   0.625000 0
  0.875000   0.687500 0
  0.875000   0.656250 0
  0.875000   0.593750 0
  0.875000   0.562500 0
  0.875000   0.625000 0
  0.781250   0.531250 0
  0.781250   0.562500 0
  0.781250   0.625000 0
  0.781250   0.593750 0
  0.781250   0.656250 0
  0.843750   0.656250 0
  0.843750   0.593750 0
  0.843750   0.562500 0
  0.843750   0.625000 0
  0.843750   0.687500 0
  0.843750   0.750000 0
  0.875000   0.531250 0
  0.843750   0.531250 0
  0.656250   0.906250 0
  0.656250   0.937500 0
  0.656250   1.000000 0
  0.656250   0.968750 0
  0.687500   1.000000 0
  0.687500   0.968750 0
  0.687500   0.937500 0
  0.718750   0.937500 0
  0.718750   0.968750 0
  0.718750   1.000000 0
  0.656250   0.781250 0
  0.656250   0.812500 0
  0.656250   0.843750 0
  0.656250   0.875000 0
  0.750000   0.968750 0
  0.750000   1.000000 0
  0.750000   0.656250 0
  0.750000   0.625000 0
  0.687500   0.656250 0
  0.687500   0.687500 0
  0.687500   0.625000 0
  0.718750   0.656250 0
  0.718750   0.687500 0
  0.718750   0.718750 0
  0.656250   0.531250 0
  0.656250   0.562500 0
  0.656250   0.656250 0
  0.656250   0.687500 0
  0.656250   0.750000 0
  0.656250   0.718750 0
  0.656250   0.625000 0
  0.656250   0.593750 0
  0.750000   0.687500 0
  0.750000   0.718750 0
  0.750000   0.750000 0
  0.687500   0.531250 0
  0.687500   0.562500 0
  0.687500   0.593750 0
  0.718750   0.625000 0
  0.750000   0.531250 0
  0.718750   0.531250 0
  0.750000   0.562500 0
  0.718750   0.562500 0
  0.718750   0.593750 0
  0.750000   0.593750 0
  0.562500   1.000000 0
  0.562500   0.968750 0
  0.562500   0.937500 0
  0.562500   0.906250 0
  0.562500   0.812500 0
  0.562500   0.843750 0
  0.562500   0.875000 0
  0.625000   0.937500 0
  0.625000   0.906250 0
  0.562500   0.781250 0
  0.625000   0.875000 0
  0.531250   1.000000 0
  0.531250   0.968750 0
  0.531250   0.937500 0
  0.531250   0.812500 0
  0.531250   0.875000 0
  0.531250   0.843750 0
  0.531250   0.906250 0
  0.593750   0.906250 0
  0.593750   0.843750 0
  0.593750   0.875000 0
  0.593750   0.812500 0
  0.625000   0.843750 0
  0.625000   0.812500 0
  0.593750   0.937500 0
  0.625000   1.000000 0
  0.593750   1.000000 0
  0.593750   0.968750 0
  0.625000   0.968750 0
  0.625000   0.781250 0
  0.593750   0.781250 0
  0.562500   0.531250 0
  0.562500   0.750000 0
  0.562500   0.718750 0
  0.562500   0.687500 0
  0.562500   0.656250 0
  0.562500   0.562500 0
  0.562500   0.593750 0
  0.562500   0.625000 0
  0.625000   0.687500 0
  0.625000   0.656250 0
  0.625000   0.593750 0
  0.625000   0.562500 0
  0.625000   0.625000 0
  0.531250   0.531250 0
  0.531250   0.750000 0
  0.531250   0.718750 0
  0.531250   0.687500 0
  0.531250   0.562500 0
  0.531250   0.625000 0
  0.531250   0.593750 0
  0.531250   0.656250 0
  0.593750   0.656250 0
  0.593750   0.593750 0
  0.593750   0.562500 0
  0.593750   0.625000 0
  0.593750   0.687500 0
  0.625000   0.750000 0
  0.593750   0.750000 0
  0.593750   0.718750 0
  0.625000   0.718750 0
  0.625000   0.531250 0
  0.593750   0.531250 0
  0.968750   0.406250 0
  0.968750   0.437500 0
  0.968750   0.468750 0
  0.968750   0.500000 0
  1.000000   0.406250 0
  1.000000   0.375000 0
  1.000000   0.437500 0
  1.000000   0.468750 0
  1.000000   0.500000 0
  0.906250   0.500000 0
  0.906250   0.406250 0
  0.906250   0.437500 0
  0.906250   0.281250 0
  0.906250   0.312500 0
  0.906250   0.343750 0
  0.906250   0.375000 0
  0.937500   0.406250 0
  0.937500   0.500000 0
  0.937500   0.468750 0
  0.937500   0.437500 0
  0.937500   0.281250 0
  0.937500   0.312500 0
  0.937500   0.343750 0
  0.937500   0.375000 0
  0.968750   0.375000 0
  1.000000   0.281250 0
  0.968750   0.281250 0
  1.000000   0.312500 0
  0.968750   0.312500 0
  0.968750   0.343750 0
  1.000000   0.343750 0
  0.968750   0.125000 0
  0.968750   0.156250 0
  0.968750   0.187500 0
  1.000000   0.000000 0
  1.000000   0.156250 0
  1.000000   0.125000 0
  1.000000   0.187500 0
  1.000000   0.218750 0
  0.531250   0.781250 0
  1.000000   0.250000 0
  0.906250   0.250000 0
  0.906250   0.218750 0
  0.937500   0.250000 0
  0.937500   0.218750 0
  0.968750   0.250000 0
  0.906250   0.031250 0
  0.906250   0.000000 0
  0.906250   0.062500 0
  0.906250   0.093750 0
  0.906250   0.125000 0
  0.937500   0.156250 0
  0.937500   0.031250 0
  0.937500   0.000000 0
  0.937500   0.062500 0
  0.937500   0.093750 0
  0.937500   0.125000 0
  1.000000   0.031250 0
  0.968750   0.031250 0
  0.968750   0.000000 0
  1.000000   0.062500 0
  0.968750   0.062500 0
  0.968750   0.093750 0
  1.000000   0.093750 0
  0.781250   0.312500 0
  0.781250   0.343750 0
  0.812500   0.500000 0
  0.812500   0.468750 0
  0.812500   0.437500 0
  0.812500   0.281250 0
  0.812500   0.312500 0
  0.812500   0.343750 0
  0.812500   0.375000 0
  0.875000   0.281250 0
  0.875000   0.406250 0
  0.875000   0.343750 0
  0.875000   0.312500 0
  0.875000   0.375000 0
  0.843750   0.281250 0
  0.843750   0.312500 0
  0.843750   0.375000 0
  0.843750   0.343750 0
  0.781250   0.500000 0
  0.781250   0.468750 0
  0.781250   0.437500 0
  0.781250   0.406250 0
  0.875000   0.500000 0
  0.843750   0.500000 0
  0.843750   0.468750 0
  0.875000   0.468750 0
  0.781250   0.281250 0
  0.843750   0.218750 0
  0.843750   0.250000 0
  0.843750   0.187500 0
  0.843750   0.156250 0
  0.875000   0.218750 0
  0.875000   0.250000 0
  0.875000   0.187500 0
  0.812500   0.062500 0
  0.812500   0.250000 0
  0.812500   0.218750 0
  0.812500   0.187500 0
  0.812500   0.156250 0
  0.812500   0.125000 0
  0.843750   0.093750 0
  0.843750   0.062500 0
  0.875000   0.125000 0
  0.875000   0.093750 0
  0.875000   0.062500 0
  0.781250   0.250000 0
  0.781250   0.218750 0
  0.781250   0.187500 0
  0.093750   0.937500 0
  0.125000   1.000000 0
  0.937500   0.718750 0
  0.250000   0.000000 0
  0.093750   0.968750 0
  0.125000   0.968750 0
  0.000000   0.718750 0
  0.000000   0.750000 0
  0.125000   0.531250 0
  0.125000   0.562500 0
  0.093750   0.531250 0
  0.031250   0.750000 0
  0.125000   0.468750 0
  0.156250   0.468750 0
  0.500000   0.375000 0
  0.156250   0.500000 0
  0.406250   0.406250 0
  0.406250   0.437500 0
  0.406250   0.500000 0
  0.406250   0.468750 0
  0.406250   0.375000 0
  0.750000   0.312500 0
  0.437500   0.406250 0
  0.437500   0.500000 0
  0.437500   0.468750 0
  0.437500   0.437500 0
  0.468750   0.437500 0
  0.468750   0.468750 0
  0.406250   0.281250 0
  0.406250   0.312500 0
  0.062500   0.375000 0
  0.406250   0.343750 0
  0.062500   0.406250 0
  0.500000   0.468750 0
  0.500000   0.500000 0
  0.437500   0.281250 0
  0.437500   0.312500 0
  0.437500   0.343750 0
  0.093750   0.406250 0
  0.437500   0.375000 0
  0.093750   0.437500 0
  0.468750   0.375000 0
  0.125000   0.437500 0
  0.500000   0.281250 0
  0.468750   0.281250 0
  0.500000   0.312500 0
  0.468750   0.312500 0
  0.468750   0.343750 0
  0.500000   0.343750 0
  0.843750   0.906250 0
  0.156250   0.187500 0
  0.468750   0.187500 0
  0.468750   0.218750 0
  0.468750   0.250000 0
  0.406250   0.031250 0
  0.750000   0.812500 0
  0.062500   0.093750 0
  0.406250   0.000000 0
  0.750000   0.781250 0
  0.062500   0.062500 0
  0.500000   0.187500 0
  0.500000   0.218750 0
  0.500000   0.250000 0
  0.437500   0.031250 0
  0.781250   0.812500 0
  0.093750   0.093750 0
  0.437500   0.000000 0
  0.437500   0.062500 0
  0.781250   0.843750 0
  0.093750   0.125000 0
  0.406250   0.187500 0
  0.406250   0.250000 0
  0.406250   0.218750 0
  0.437500   0.250000 0
  0.437500   0.218750 0
  0.437500   0.187500 0
  0.500000   0.000000 0
  0.500000   0.031250 0
  0.468750   0.031250 0
  0.468750   0.000000 0
  0.500000   0.062500 0
  0.468750   0.062500 0
  0.812500   0.843750 0
  0.125000   0.125000 0
  0.812500   0.875000 0
  0.125000   0.156250 0
  0.500000   0.093750 0
  0.843750   0.875000 0
  0.156250   0.156250 0
  1.000000   1.000000 0
  0.312500   0.281250 0
  0.656250   0.218750 0
  0.437500   0.156250 0
  0.312500   0.500000 0
  0.437500   0.125000 0
  0.312500   0.468750 0
  0.437500   0.093750 0
  0.781250   0.031250 0
  0.312500   0.437500 0
  0.312500   0.406250 0
  0.312500   0.312500 0
  0.312500   0.343750 0
  0.312500   0.375000 0
  0.375000   0.437500 0
  0.375000   0.406250 0
  0.375000   0.343750 0
  0.718750   0.281250 0
  0.375000   0.375000 0
  0.968750   1.000000 0
  0.281250   0.281250 0
  0.406250   0.156250 0
  0.281250   0.500000 0
  0.406250   0.125000 0
  0.281250   0.468750 0
[...]
CELL_DATA 1024
SCALARS scalar_value float 1
LOOKUP_TABLE default
-0.022681
0.00934646
-0.0291749
-0.0342927
0.0745905
0.140097
0.136595
-0.0168449
0.00414209
-0.0285984
-0.0304929
0.07807
0.0437528
0.0727171
0.0109904
0.0164559
0.0179156
-0.0517347
-0.0689958
-0.0256586
-0.00433313
0.0469159
0.0487177
0.0513344
-0.00175917
0.0437509
0.0679754
0.0158437
0.0742073
-0.00931868
0.034632
0.00532526
-0.0116734
-0.0222754
0.00067157
0.00044817
0.000585733
0.00102021
-0.00556412
-0.0159272
0.000851116
0.000986962
0.00109274
-0.00142714
-0.05687
-0.0284505
-0.00171015
-0.00893873
0.00911901
0.0480767
0.000485622
-0.00558421
-0.00935496
0.000132377
3.7715e-05
0.000315819
0.00073185
0.000659936
-0.0043482
0.00012501
-0.000755624
0.000382652
0.000343638
4.06836e-05
-0.0720851
-0.0916954
0.0472931
0.222067
0.000956952
0.100479
0.270152
-0.0723249
0.234566
0.0309226
-0.0335811
0.0104476
-0.0129748
0.0437131
0.0259223
0.0706598
-0.00117057
0.0888529
0.0112639
-0.0603695
-0.0722607
-0.00286308
-0.0211259
-0.00806946
0.0565478
-0.0245568
0.0211216
-0.035985
0.0589916
0.0730765
-0.0232096
0.114667
0.0219485
0.00256931
0.0241809
-0.0586844
0.00632174
-0.0121937
0.0158946
-0.0255409
0.0145671
0.0371199
-0.0578217
0.0848376
-0.0313047
-0.124802
0.0902298
0.0013139
0.00106875
0.000864966
0.00636558
0.0384953
-0.00701762
-0.01878
-0.0221589
0.00765542
-0.00548717
0.000236923
-0.000655712
-0.00656109
0.00499164
-0.0483281
-0.0684408
-0.00829072
-0.0357351
0.0684396
-0.105547
0.02402
0.00306271
-0.0440994
-0.0588595
-0.119011
-0.099948
0.713427
0.339896
-0.00639541
0.0127473
0.132479
0.0639069
0.0635542
0.031941
0.378056
-0.0337884
0.0197857
0.104196
0.351698
-0.0696103
-0.0271512
0.763043
0.00692166
0.101475
0.299151
0.0796307
0.0508645
0.0389929
0.0199265
-0.00997224
-0.0321486
-0.0164564
4.41968
4.28251
4.68142
3.95704
1.48219
-0.0116623
-0.00731264
4.06401
2.29814
0.441344
2.97323
0.0483683
-0.00641458
-0.0115011
0.0224863
-0.0346076
0.00457791
0.00491618
0.0712645
0.258516
-0.0650087
-0.00571284
0.010556
-0.00372178
-0.00656911
0.0684823
-0.0143278
1.81679
2.2671
1.5993
2.45864
1.80453
4.16944
3.82714
4.40286
4.49752
1.40574
1.14009
0.94746
1.34387
2.85908
0.539663
2.99397
3.41608
2.43442
1.37953
-0.156723
-0.0174862
0.0585647
0.000142998
-0.0888896
0.0485868
-0.000793771
-0.0529038
-0.0074787
-0.0018446
0.00561463
-0.01739
0.00884657
-0.0280744
-0.0289305
2.22044
1.73928
3.80345
3.06086
1.31287
-0.24475
-0.298612
-0.0301533
0.456488
0.0254671
-0.264456
0.861296
0.970696
1.89244
2.7116
0.208636
-0.0136802
0.815836
2.02469
3.50717
0.902496
4.40678
4.43129
4.49145
4.56557
4.666
4.59375
4.60512
3.65803
3.1154
4.4466
4.38166
0.00020848
0.000386507
-5.66612e-07
-5.3097e-07
1.23592e-06
4.40231e-05
2.13275e-06
1.14083e-05
-9.29525e-08
2.18266e-08
1.5938e-08
1.8473e-07
0.000182935
4.99158e-05
-1.34442e-09
-9.27033e-08
2.84776e-07
6.37085e-06
1.01514e-05
4.50539e-05
6.52891e-08
4.32512e-07
7.50386e-08
1.00827e-06
1.49762e-08
-5.82486e-09
-2.23331e-08
-1.32065e-08
-1.71541e-09
-3.02929e-09
4.30942e-09
-7.69916e-10
0
2.21078e-10
1.14252e-10
0
-1.60501e-07
-1.61099e-07
-2.9462e-09
-5.12194e-09
1.60592e-08
-1.70081e-09
-1.03912e-07
1.64872e-07
1.91092e-08
-5.91856e-08
-6.19345e-09
-1.26878e-08
8.02333e-09
2.44711e-08
-3.09759e-08
5.09124e-09
-6.4729e-09
0
-3.02885e-10
6.68827e-09
4.40602e-10
7.65195e-10
3.95235e-10
4.16978e-10
-1.45622e-09
-3.62734e-10
1.15532e-09
1.11944e-09
0.00736009
0.000725955
0.00214663
0.00561306
5.15235e-05
-0.000359623
-9.72642e-05
0.000407315
-0.000267938
0.0144239
0.0324393
-0.0487205
-0.00321062
0.0022135
-4.51812e-05
0.00219672
-2.48372e-06
0.00196883
0.000782726
0.00142482
5.30267e-05
5.70395e-06
5.89238e-06
-1.79969e-05
3.32081e-05
0.00028643
1.79129e-05
0.000748127
0.000470031
-2.27925e-06
1.70358e-06
-3.28296e-06
0.000161838
-0.000116272
-0.000213294
1.50718e-06
1.11752e-06
-3.15565e-06
-4.91645e-06
3.47157e-06
6.78553e-07
1.24713e-06
-2.06701e-05
-2.81013e-05
-5.12535e-06
-1.70479e-05
1.04277e-06
-8.13698e-07
-2.27066e-06
-1.47028e-06
3.77841e-06
-3.90554e-07
-1.02355e-06
6.37384e-07
4.67694e-07
-1.84137e-06
-6.68249e-07
9.5991e-07
-3.19441e-07
-3.58047e-07
-2.37643e-08
3.80048e-07
1.54486e-07
-3.62318e-07
-0.160181
0.0379716
0.00292562
0.00604335
0.214778
3.49397
0.574154
0.00694722
-0.000789791
3.67028
0.646336
4.33226
1.95094
3.02828
4.0125
4.62007
4.49178
4.6309
4.63243
0.0037739
0.0270161
0.053043
0.0133931
-0.00190287
-0.00192741
0.00182636
0.162496
0.0137035
-0.00318937
0.0597004
0.00130489
-0.00216985
-0.000942507
-0.000538125
0.000358425
0.000108217
0.000828731
-6.05044e-05
-0.00101682
-0.000296109
-0.000757954
-4.00799e-05
-1.23807e-05
-1.62205e-05
3.77709e-05
-0.00625564
-0.00428527
-0.000889758
-0.000996253
-0.00249082
-0.00170448
-0.00371713
0.00179893
0.00224598
0.000156679
2.32609e-05
0.000113557
8.88524e-05
0.000161577
-4.60889e-06
-8.09016e-06
-0.00022693
-5.57853e-05
7.84973e-06
4.45542
4.68806
2.84807
3.78427
4.61646
3.95335
4.60224
4.5799
4.10409
3.20786
2.96431
4.70455
0.105422
2.36746
0.0762677
0.000321452
0.0703959
0.0107847
3.4109
4.64454
4.22133
3.58482
4.5573
4.67529
-0.0011505
4.56255
4.65188
4.6441
0.591035
4.48532
4.25131
0.0223031
-0.00245899
-0.00139906
0.00459177
-0.00974252
-0.000880296
-0.00066414
1.18032e-05
-0.000142266
0.00147974
0.00225513
0.000491
0.00335664
-0.00121835
0.00333219
-0.00413782
-0.00248924
-0.000579727
0.00433585
-0.000837983
-0.00241092
-0.000283604
-8.05767e-05
0.000835098
0.000154101
-0.000992242
-0.00348969
0.00131571
0.0145007
0.00181901
-0.00662471
-0.00030509
-5.12966e-05
4.84531
4.3836
-0.0325269
-0.0353371
-0.0364505
-0.0174948
0.000612571
0.0155245
-0.00567583
2.63027
4.80543
4.75735
3.67475
3.08648
4.22898
4.59671
-0.580542
-0.301852
-0.513253
-0.077896
2.00696
1.10141
2.97459
3.78586
0.545852
0.358543
2.38044
-0.256362
0.0959652
0.416067
0.6581
0.622921
4.59813
2.29589
3.15848
-0.227003
-0.145251
1.0714
2.05955
0.370663
-0.0628126
-0.283281
-0.311239
2.34541
2.57926
4.2949
4.03906
3.87746
4.20485
3.47241
3.02846
4.49591
4.74735
4.84406
4.74212
4.61838
5.05865
5.01541
0.51384
0.179916
0.207373
1.29055
0.17853
0.338757
0.00188448
0.00770858
0.00599653
0.00708957
0.00782288
0.00223827
0.00040888
0.00372563
0.0134681
-0.000116995
0.0015998
0.000936247
0.0108421
0.00670873
0.0110643
0.0092634
-0.00481228
-0.0102589
0.00213139
0.0110045
0.0163785
0.003285
0.0200778
0.0225606
-0.0123624
-0.00129182
-0.0237782
-0.0351082
0.00300504
0.0159909
0.00888925
0.015182
0.022457
0.0238145
0.00712429
0.00829777
0.00400747
0.0205214
0.0142462
0.00611123
-0.000517954
-0.00306805
-0.00431909
0.000937041
-0.00148781
-0.000606823
-0.00223941
-0.00177995
-0.0020577
0.00431944
0.012698
0.018707
0.0103699
0.0061105
0.019955
0.0145035
0.0250268
-0.0397102
-0.0313055
-0.0337782
-0.0190827
-0.00919162
0.0534297
0.0259439
0.00972347
0.00887763
0.0142166
0.0118532
-0.00649304
0.00621616
0.00335007
0.00267256
0.0148234
0.00682556
0.0151471
0.00569703
-0.0134609
-0.017991
-0.0109221
-0.0138279
0.00232014
0.00139856
0.00771758
-4.15449e-05
-0.00165649
0.00510634
0.00924204
0.0083697
0.0114893
0.0102368
0.00916745
0.00139397
0.00670391
0.00276605
-0.000196341
0.00672422
0.00079201
0.00214458
-1.45739e-05
7.32064e-05
0.000350064
0.000517829
0.00123434
0.0064235
-7.81981e-05
-2.54121e-05
-0.00385803
-0.00321149
0.00705564
0.00329229
0.000116759
-6.33037e-05
0.000515223
0.00129303
-0.00281924
-0.000902545
-2.58164e-05
-6.12332e-06
-0.000311104
-0.00154595
-7.66511e-06
-0.000137095
-0.000311777
-0.000228828
-0.000513271
-0.000913044
-0.00240423
-0.00128418
-0.00196591
6.92679e-05
-0.0174896
-0.00462225
0.00418026
0.00532333
0.00321399
0.42562
-0.0356773
0.116851
0.0990756
0.0092014
0.0127523
0.00101376
-0.000871414
0.0115483
0.00445746
-0.000537016
-0.000875149
-0.004496
-0.00794416
-0.00133479
-0.000391009
0.00139921
0.00246849
0.0228391
0.0245452
0.00192825
0.0160792
-0.00856215
-0.0141038
0.000988841
0.000194246
5.7022e-05
0.000515126
0.000421797
1.05678e-05
6.57873e-07
-1.54876e-07
-6.88823e-08
0.000120344
4.43526e-05
0.000214639
-0.000489125
8.53115e-06
2.12979e-05
3.68455e-06
2.082e-06
-1.40535e-06
0.000693557
0.00146409
0.000251862
6.74309e-05
-8.69842e-07
-2.36109e-07
1.8394e-05
2.33622e-07
0.000566842
0.000193827
0.00163658
0.00299628
-6.14408e-06
4.59878e-05
-2.36274e-06
2.5575
0.979727
0.00193941
0.00638852
-0.00879705
-0.00403326
0.0267724
0.0201629
2.72829
0.865584
0.00202249
0.00473488
0.0171498
0.0101417
-0.109716
-0.00891005
4.5283
3.88021
4.44628
4.68764
4.64515
1.12076
-0.01959
-0.0145881
4.42482
4.58333
2.70815
3.86803
1.04506
0.0443832
-0.0109052
-0.000576313
-0.00611696
-0.00340166
-6.07836e-05
-8.97412e-07
0.00012231
-0.000168411
-0.00725246
4.35117e-06
0.000135057
-6.33815e-05
0.000128522
-0.000102779
0.000608908
0.000350595
-0.00109585
-0.00183964
-9.60128e-05
-0.00417488
0.00135821
6.93948e-06
-0.00112409
0.00224369
-7.97177e-05
-4.85766e-05
-5.48377e-05
0.00540191
0.000190507
0.000394498
9.30307e-05
0.000117904
-3.93426e-05
0.000102829
-0.000529751
-0.000668509
-0.00270703
-0.000538627
7.55593e-05
4.92942e-05
2.41344e-05
-0.000585816
8.54554e-06
-0.000328544
5.05377e-05
0.000110241
2.63165e-05
-0.0123274
-0.0292185
-3.20842e-05
-4.3038e-05
-3.78174e-06
-0.00115937
-0.00187048
-0.00221225
-0.00160574
-0.00156992
-0.00183726
-0.00231023
0.0013456
0.0010947
-0.00144676
0.000757798
0.000587401
-0.000758961
0.000583815
-8.92163e-06
-1.4225e-05
-7.24584e-05
6.14428e-05
4.35918e-06
2.44284e-06
1.0099e-06
-6.76628e-06
2.71059e-05
-1.027e-07
1.26459e-07
-1.94394e-06
4.26649e-07
-5.00763e-08
-1.24089e-05
-9.14605e-05
-2.54621e-05
-8.6216e-05
-4.34663e-05
7.856e-05
9.03393e-06
1.31855e-06
3.86552e-08
-4.87316e-10
-1.50173e-05
0.000234103
2.34585e-05
6.1128e-05
-2.62639e-05
-2.42695e-06
9.3167e-07
1.26459e-05
1.43181e-06
2.34533e-07
8.44084e-06
-1.11814e-05
1.01675e-07
-3.7043e-07
-1.01836e-07
-1.36638e-07
2.97709e-08
1.28466e-07
1.06445e-07
1.02873e-07
-3.0625e-06
3.40167e-07
-5.47788e-07
3.83082e-07
-3.37003e-07
5.43162e-07
3.7191e-07
3.0924e-06
5.09521e-06
-1.14628e-06
-2.92417e-06
-1.85361e-05
4.08954e-06
-4.05829e-08
-8.4775e-07
-1.77007e-05
-2.00152e-05
1.59191e-05
-0.000134543
-2.05207e-05
-1.22109e-09
1.9138e-08
4.44982e-09
1.18481e-09
3.78077e-10
-6.09374e-09
1.19877e-08
-8.33233e-09
8.58936e-09
1.94073e-07
-5.82575e-08
-2.81709e-10
1.07424e-09
-9.38748e-09
1.72123e-09
-1.73468e-09
-6.5982e-10
2.25633e-06
-3.91404e-06
-9.25087e-08
1.46427e-07
-5.79776e-07
2.33919e-08
1.92849e-09
1.8975e-07
-1.05741e-06
5.81754e-10
-8.13423e-08
-1.5316e-08
6.51382e-09
3.07659e-10
-4.06e-10
-1.50561e-08
2.79817e-07
9.80238e-07
-6.17255e-09
-2.446e-09
-4.16578e-10
6.06612e-10
7.24051e-10
3.84504e-10
-1.55442e-10
6.86667e-08
1.64048e-08
2.99218e-09
5.75818e-09
8.6015e-10
-2.11305e-10
-3.52234e-08
-4.48382e-08
-2.12296e-08
-3.47242e-09
2.83904e-09
0
3.72028e-09
4.53959e-09
-1.70801e-08
3.85299e-09
-2.07608e-08
-8.65435e-08
-7.23113e-09
2.3232e-09
2.00724e-08
1.35913e-08
0
0
1.31371e-10
1.39834e-10
0
1.3039e-10
0
0
0
0
0
0
-3.16775e-10
0
0
0
0
3.53161e-10
1.87155e-10
-2.72132e-09
1.45902e-09
-8.53782e-10
2.30166e-10
-8.75458e-10
0
0
-4.97973e-10
2.53129e-10
0
0
-1.2503e-10
0
